 **********************************************************************
                          MRCC program system
 **********************************************************************
 
                              Written by
     Mihaly Kallay, Peter R. Nagy, David Mester, Laszlo Gyevi-Nagy,
        Jozsef Csoka, P. Bernat Szabo, Zoltan Rolik, Gyula Samu,
     Jozsef Csontos, Bence Hegely, Adam Ganyecz, Istvan Ladjanszki,
       Lorant Szegedy, Bence Ladoczki, Klara Petrov, Mate Farkas,
                    Pal D. Mezei, and Reka A. Horvath
 
        Department of Physical Chemistry and Materials Science
            Budapest University of Technology and Economics
                  Budapest P.O.Box 91, H-1521 Hungary
 
                              www.mrcc.hu
 
                      Release date: March 18, 2022

 ************************ 2025-05-05 19:41:36 *************************
 Executing minp...

 Reading input from MINP...
 
 Input file:
 
basis=aug-cc-pvdz
#calc=DF-CCSD
calc=FNO-CCSD
eps=0.25000
naf_cor=off
cctol=10
ccsdthreads=24
ptthreads=24
verbosity=3
symm=off
mem=330000MB

geom=xyz
4

O      0.0000     0.0000     0.0000
O      1.4500     0.0000     0.0000
H     -0.6000     0.7700     0.0000
H      2.0500     0.7700     0.0000

 
 
 Checking keyword combinations...
 
 Keywords:
 
 active=none
 agrid=ld0006-ld0590
 agrid_pssp=ld0006-ld0194
 agrid_pssp_sm=ld0006-ld0074
 basis=aug-cc-pvdz
 basis_sm=none
 basopt=off
 bfbasis=none
 bfgsmem=10
 bfgstol=1.0d-3
 bpcompo=0.985
 bpcompv=0.98
 bpdfo=0.985
 bpocc=0.985
 bppdo=0.985
 bppdv=0.98
 bpedo=0.985
 bpedv=0.98
 calc=ccsd
 ccmaxit=50
 ccprog=ccsd
 ccsdalg=dfdirect
 ccsdmkl=seq
 ccsdrest=trf
 ccsdthreads=24
 cctol=10
 charge=0
 cialg=auto
 ciguess=off
 cmpgrp=auto
 comprest=off
 core=frozen
 corembed=off
 csapprox=off
 cvs=off
 dboc=off
 delocsomofact=
 dendec=cholesky
 dens=0
 dfalg=lineq
 dfbasis_cab=none
 dfbasis_cor=auto
 dfbasis_scf=auto
 dfbasis_scf_sm=auto
 dfintran=drpa
 dft=off
 dhexc=adc(2)
 diag=david
 docc=
 domrad=10.d0
 drpaalg=fit
 dual=off
 dual_df=off
 ecp=auto
 edisp=off
 edisp_embed=off
 embed=off
 etemp=300
 epert=none
 eps=0.25000
 espcharge=off
 excrad=0.d0
 excrad_fin=0.000000000D+00
 fitting=coulomb
 fmm=off
 fmmord=8
 freq=off
 gamma=1.d0
 gauss=spher
 geom=xyz
 gopt=off
 ghost=none
 gtol=7
 grdens=off
 gridbatch_cos=2000
 grtol=10
 guido_ct=off
 hamilton=dc
 iface=none
 intalg=auto
 itol=14
 laptol=1.d-2
 lccoporder=trffirst
 lcorthr=normal
 lccrest=off
 lmp2dens=on
 lnoepso=0.d0
 lnoepsv=5e-5
 boysalg=jacobi
 localcc=off
 localcorrsymm=off
 locintrf=disk
 mact=
 maxact=off
 maxdim=100
 maxex=0
 maxmicroit=100
 mcscfiguess=hf
 mem=330000mb
 mmprog=
 molden=on
 mpitasks=1
 mulmet=0
 mult=
 nacto=0
 nactv=0
 naf_amp=1.d-2
 naf_cor=off
 naf_scf=off
 nafalg=albe
 naftyp=
 nchol=auto
 ndeps=1e-3
 nstate=1
 nsing=0
 nto=off
 ntrip=0
 occ=
 occri=off
 oniom=off
 oniom_eechg=off
 oniom_pcm=off
 oniom_qcorr=off
 optalg=
 optmaxit=50
 optetol=1e-6
 optex=0
 optgtol=1e-4
 optstol=1e-3
 orblocc=off
 orbloce=off
 orbloco=off
 orblocv=off
 orblocguess=cholesky
 osveps=1e-3
 ovirt=ppl
 ovltol=1e-7
 ovosnorb=80.0
 pcm=off
 popul=off
 pressure=100000
 pssp=off
 ptfreq=0.0
 ptthreads=24
 qro=off
 qscf=off
 qmmm=off
 redcost_exc=off
 redcost_tddft=off
 refdet=none
 rest=0
 rgrid=log3
 rism=off
 rohfcore=semicanonical
 rohftype=semicanonical
 scfalg=auto
 scf_conv=auto
 scfdamp=0.0d0
 scfdamp_mode=off
 scfdamp_end=50
 scfdamp_dampstep=0.d0
 scfdamp_dtol=0.0d0
 scfdamp_maxfact=0.0d0
 scfdamp_minfact=0.0d0
 scfdiis=on
 scfdiis_dtol=0.0d0
 scfdiis_end=50
 scfdiis_start=2
 scfdiis_step=1
 scfdiis_watch=off
 scfdiis_wrange=10
 scfdiis_wlimit=5
 scfdiis_delmax=2
 scfdtol=11
 scfext=10
 scfguessdens=
 scfiguess=sad
 scfloc=off
 scflshift=0.20
 scflshift_end=8
 scflshift_dtol=0.0
 scflshift_gaptol=0.20
 scfmaxit=50
 scftype=
 scftol=10
 scspe=1.d0
 scsph=1.d0
 scsps=1.2d0
 scsps_t=1.2d0
 scspt=0.33333333333333
 scspt_t=0.33333333333333
 scspv=1.d0
 spairtol=1e-4
 sqmprog=
 subminp=top
 symm=0
 talg=occ
 temp=298.15
 test=off
 theodore=off
 tlmo=0.999
 tpao=0.94
 tprint=off
 uncontract=off
 unit=angs
 usedisk=2
 verbosity=3
 wpairtol=0.100000000E-05

 ************************ 2025-05-05 19:41:36 *************************
 Executing integ...

 Allocation of 322.3 Gbytes of memory...
 
 
 Number of atoms:                  4
 Charge:                           0
 Number of electrons:             18
 Number of core electrons:         4
 Spin multiplicity:                1
 
                 Cartesian coordinates [bohr]      Atomic mass [AMU]  Z
   1  O     0.00000000    0.00000000    0.00000000    15.994915       8
   2  O     2.74010288    0.00000000    0.00000000    15.994915       8
   3  H    -1.13383568    1.45508912    0.00000000     1.007825       1
   4  H     3.87393856    1.45508912    0.00000000     1.007825       1
 
 This molecule is an asymmetric top.
 This molecule is planar.
 
 Rotational constants [cm-1]: 
     14.994669156852      0.828247175865      0.784892754348
 
 Point group: C2v 
 Computational point group: C1  
 
 Cartesian coordinates in standard orientation [bohr]
   1  O     0.00000000   -1.37005144   -0.08624935
   2  O     0.00000000    1.37005144   -0.08624935
   3  H     0.00000000   -2.50388712    1.36883977
   4  H     0.00000000    2.50388712    1.36883977
 
 Nuclear repulsion energy [au]:         36.096455076515
 
 
 Basis set information:
 
 Maximum angular momentum: f
 Maximum number of contracted Gaussians:   11
 Maximum number of primitive Gaussians:    11
 Spherical harmonic GTOs are used.
 
 
 Conventional basis set:
 
   1  O  aug-cc-pvdz [ 10s 5p 2d | 4s 3p 2d ]
   2  O  aug-cc-pvdz [ 10s 5p 2d | 4s 3p 2d ]
   3  H  aug-cc-pvdz [ 5s 2p | 3s 2p ]
   4  H  aug-cc-pvdz [ 5s 2p | 3s 2p ]
 
 Basis functions:
            1             2             3             4             5             6             7             8             9            10
    0    1O1s          1O2s          1O3s          1O4s          1O1pz         1O1py         1O1px         1O2pz         1O2py         1O2px     
    1    1O3pz         1O3py         1O3px         1O1d-2        1O1d-1        1O1d0         1O1d+1        1O1d+2        1O2d-2        1O2d-1    
    2    1O2d0         1O2d+1        1O2d+2        2O1s          2O2s          2O3s          2O4s          2O1pz         2O1py         2O1px     
    3    2O2pz         2O2py         2O2px         2O3pz         2O3py         2O3px         2O1d-2        2O1d-1        2O1d0         2O1d+1    
    4    2O1d+2        2O2d-2        2O2d-1        2O2d0         2O2d+1        2O2d+2        3H1s          3H2s          3H3s          3H1pz     
    5    3H1py         3H1px         3H2pz         3H2py         3H2px         4H1s          4H2s          4H3s          4H1pz         4H1py     
    6    4H1px         4H2pz         4H2py         4H2px     
 
 Maximum number of basis functions per shell:   10
 Total number of basis functions:     64
 
 
 Fitting basis set for the SCF calculation:
 
   1  O  aug-cc-pvdz-ri-jk [ 11s 8p 6d 3f | 11s 8p 6d 3f ]
   2  O  aug-cc-pvdz-ri-jk [ 11s 8p 6d 3f | 11s 8p 6d 3f ]
   3  H  aug-cc-pvdz-ri-jk [ 5s 4p 3d | 5s 4p 3d ]
   4  H  aug-cc-pvdz-ri-jk [ 5s 4p 3d | 5s 4p 3d ]
 
 Basis functions:
            1             2             3             4             5             6             7             8             9            10
    0    1O1s          1O2s          1O3s          1O4s          1O5s          1O6s          1O7s          1O8s          1O9s          1O10s     
    1    1O11s         1O1pz         1O1py         1O1px         1O2pz         1O2py         1O2px         1O3pz         1O3py         1O3px     
    2    1O4pz         1O4py         1O4px         1O5pz         1O5py         1O5px         1O6pz         1O6py         1O6px         1O7pz     
    3    1O7py         1O7px         1O8pz         1O8py         1O8px         1O1d-2        1O1d-1        1O1d0         1O1d+1        1O1d+2    
    4    1O2d-2        1O2d-1        1O2d0         1O2d+1        1O2d+2        1O3d-2        1O3d-1        1O3d0         1O3d+1        1O3d+2    
    5    1O4d-2        1O4d-1        1O4d0         1O4d+1        1O4d+2        1O5d-2        1O5d-1        1O5d0         1O5d+1        1O5d+2    
    6    1O6d-2        1O6d-1        1O6d0         1O6d+1        1O6d+2        1O1f-3        1O1f-2        1O1f-1        1O1f0         1O1f+1    
    7    1O1f+2        1O1f+3        1O2f-3        1O2f-2        1O2f-1        1O2f0         1O2f+1        1O2f+2        1O2f+3        1O3f-3    
    8    1O3f-2        1O3f-1        1O3f0         1O3f+1        1O3f+2        1O3f+3        2O1s          2O2s          2O3s          2O4s      
    9    2O5s          2O6s          2O7s          2O8s          2O9s          2O10s         2O11s         2O1pz         2O1py         2O1px     
   10    2O2pz         2O2py         2O2px         2O3pz         2O3py         2O3px         2O4pz         2O4py         2O4px         2O5pz     
   11    2O5py         2O5px         2O6pz         2O6py         2O6px         2O7pz         2O7py         2O7px         2O8pz         2O8py     
   12    2O8px         2O1d-2        2O1d-1        2O1d0         2O1d+1        2O1d+2        2O2d-2        2O2d-1        2O2d0         2O2d+1    
   13    2O2d+2        2O3d-2        2O3d-1        2O3d0         2O3d+1        2O3d+2        2O4d-2        2O4d-1        2O4d0         2O4d+1    
   14    2O4d+2        2O5d-2        2O5d-1        2O5d0         2O5d+1        2O5d+2        2O6d-2        2O6d-1        2O6d0         2O6d+1    
   15    2O6d+2        2O1f-3        2O1f-2        2O1f-1        2O1f0         2O1f+1        2O1f+2        2O1f+3        2O2f-3        2O2f-2    
   16    2O2f-1        2O2f0         2O2f+1        2O2f+2        2O2f+3        2O3f-3        2O3f-2        2O3f-1        2O3f0         2O3f+1    
   17    2O3f+2        2O3f+3        3H1s          3H2s          3H3s          3H4s          3H5s          3H1pz         3H1py         3H1px     
   18    3H2pz         3H2py         3H2px         3H3pz         3H3py         3H3px         3H4pz         3H4py         3H4px         3H1d-2    
   19    3H1d-1        3H1d0         3H1d+1        3H1d+2        3H2d-2        3H2d-1        3H2d0         3H2d+1        3H2d+2        3H3d-2    
   20    3H3d-1        3H3d0         3H3d+1        3H3d+2        4H1s          4H2s          4H3s          4H4s          4H5s          4H1pz     
   21    4H1py         4H1px         4H2pz         4H2py         4H2px         4H3pz         4H3py         4H3px         4H4pz         4H4py     
   22    4H4px         4H1d-2        4H1d-1        4H1d0         4H1d+1        4H1d+2        4H2d-2        4H2d-1        4H2d0         4H2d+1    
   23    4H2d+2        4H3d-2        4H3d-1        4H3d0         4H3d+1        4H3d+2    
 
 Maximum number of basis functions per shell:   30
 Total number of basis functions:    236
 
 
 Fitting basis set for the correlation calculation:
 
   1  O  aug-cc-pvdz-ri [ 8s 6p 5d 3f | 8s 6p 5d 3f ]
   2  O  aug-cc-pvdz-ri [ 8s 6p 5d 3f | 8s 6p 5d 3f ]
   3  H  aug-cc-pvdz-ri [ 4s 3p 2d | 4s 3p 2d ]
   4  H  aug-cc-pvdz-ri [ 4s 3p 2d | 4s 3p 2d ]
 
 Basis functions:
            1             2             3             4             5             6             7             8             9            10
    0    1O1s          1O2s          1O3s          1O4s          1O5s          1O6s          1O7s          1O8s          1O1pz         1O1py     
    1    1O1px         1O2pz         1O2py         1O2px         1O3pz         1O3py         1O3px         1O4pz         1O4py         1O4px     
    2    1O5pz         1O5py         1O5px         1O6pz         1O6py         1O6px         1O1d-2        1O1d-1        1O1d0         1O1d+1    
    3    1O1d+2        1O2d-2        1O2d-1        1O2d0         1O2d+1        1O2d+2        1O3d-2        1O3d-1        1O3d0         1O3d+1    
    4    1O3d+2        1O4d-2        1O4d-1        1O4d0         1O4d+1        1O4d+2        1O5d-2        1O5d-1        1O5d0         1O5d+1    
    5    1O5d+2        1O1f-3        1O1f-2        1O1f-1        1O1f0         1O1f+1        1O1f+2        1O1f+3        1O2f-3        1O2f-2    
    6    1O2f-1        1O2f0         1O2f+1        1O2f+2        1O2f+3        1O3f-3        1O3f-2        1O3f-1        1O3f0         1O3f+1    
    7    1O3f+2        1O3f+3        2O1s          2O2s          2O3s          2O4s          2O5s          2O6s          2O7s          2O8s      
    8    2O1pz         2O1py         2O1px         2O2pz         2O2py         2O2px         2O3pz         2O3py         2O3px         2O4pz     
    9    2O4py         2O4px         2O5pz         2O5py         2O5px         2O6pz         2O6py         2O6px         2O1d-2        2O1d-1    
   10    2O1d0         2O1d+1        2O1d+2        2O2d-2        2O2d-1        2O2d0         2O2d+1        2O2d+2        2O3d-2        2O3d-1    
   11    2O3d0         2O3d+1        2O3d+2        2O4d-2        2O4d-1        2O4d0         2O4d+1        2O4d+2        2O5d-2        2O5d-1    
   12    2O5d0         2O5d+1        2O5d+2        2O1f-3        2O1f-2        2O1f-1        2O1f0         2O1f+1        2O1f+2        2O1f+3    
   13    2O2f-3        2O2f-2        2O2f-1        2O2f0         2O2f+1        2O2f+2        2O2f+3        2O3f-3        2O3f-2        2O3f-1    
   14    2O3f0         2O3f+1        2O3f+2        2O3f+3        3H1s          3H2s          3H3s          3H4s          3H1pz         3H1py     
   15    3H1px         3H2pz         3H2py         3H2px         3H3pz         3H3py         3H3px         3H1d-2        3H1d-1        3H1d0     
   16    3H1d+1        3H1d+2        3H2d-2        3H2d-1        3H2d0         3H2d+1        3H2d+2        4H1s          4H2s          4H3s      
   17    4H4s          4H1pz         4H1py         4H1px         4H2pz         4H2py         4H2px         4H3pz         4H3py         4H3px     
   18    4H1d-2        4H1d-1        4H1d0         4H1d+1        4H1d+2        4H2d-2        4H2d-1        4H2d0         4H2d+1        4H2d+2    
 
 Maximum number of basis functions per shell:   30
 Total number of basis functions:    190
 
 
 Initializing the SAD routines for the initial guess...
 Checking the files required for the initial guess...
 All atomic density files have been found for the initial guess.
 CPU time [min]:     0.075                   Wall time [min]:     0.006
 
 Character table for point group C1:
 
          E  
    A     1
 
 Number of basis functions per irrep:
    A      64
 
 
 Calculation of overlap integrals...
 CPU time [min]:     0.077                   Wall time [min]:     0.006
 
 Calculation of the square root of the overlap matrix...
 Minimum eigenvalue of the overlap matrix: 0.753312E-03
 CPU time [min]:     0.080                   Wall time [min]:     0.006
 
 Calculation of kinetic energy integrals...
 CPU time [min]:     0.080                   Wall time [min]:     0.006
 Calculation of nuclear attraction integrals...
 CPU time [min]:     0.080                   Wall time [min]:     0.006
 
 Calculation of prescreening integrals...
 CPU time [min]:     0.088                   Wall time [min]:     0.007
 
 Calculation of two-center Coulomb integrals...
   2% done.
  13% done.
  26% done.
  41% done.
  53% done.
  64% done.
  75% done.
  88% done.
 100% done.
 CPU time [min]:     0.091                   Wall time [min]:     0.007
 
 Calculation of inverse square root of the two-center integral matrix...
 CPU time [min]:     0.097                   Wall time [min]:     0.007
 
 Calculation of three-center Coulomb integrals...
   4% done.
  18% done.
  32% done.
  52% done.
  74% done.
 100% done.
 CPU time [min]:     0.107                   Wall time [min]:     0.008

 ************************ 2025-05-05 19:41:37 *************************
 Executing scf...

 @scfsetup: integrals taken from disk
            mrcc/integ binary format
 @scfsetup: calculating on full matrices
            not using symmetry adapted basis
 @scfsetup: diis switched on
 @scfsetup: number of steps to extrapolate from  10
 @scfsetup: tolerance in energy deviation    0.100000E-09
            tolerance in density deviation    0.100000E-10
 @scfsetup: maximum number of iterations:  50
 @scfsetup: restricted closed shell hf calc
 @scfsetup: starting scf from superposition of atomic densities
 @scfsetup: occupation set:
            from initial orbitals
 @scfsetup: Parameter-set for SCF acceleration: normal
 @scfsetup: diis runs from iteration:   2
 @scfsetup: diis runs to iteration:  50
 @scfsetup: diis runs in every iteration
 @scfsetup: diiswatch is disabled                   
 @scfsetup: diis dtol criteria to switch on:      0.0000E+00
           (or the iteration number below is reached)
 @scfsetup: static damping scheme
            iteration step criteria to turn damping off: 3
 @scfsetup: dynamic level shifting
            tolarance in HOMO-LUMO gap:  0.200
            tolarance in density deviation:     0.0000E+00
            iteration step criteria to turn level shifting off: 8
 Allocation of 322.3 Gbytes of memory...
 ======================================================================
 ITERATION STEP   1
 CPU time [min]:     0.007                   Wall time [min]:     0.005
 

 SCF control                  : initial
 Damping factor/level shift   : 0.000/0.200
 DIIS [start/end/frequency]   :   2 / 50 /  1

 Constructing Fock-matrix...
 Number of integral batches:    1
 Occupied indices per batch:    9
 CPU time [min]:     0.015                   Wall time [min]:     0.005
 
 Gradient norm:      3.1504E+00
 RMS of [F,P]:                                         0.05305124620006
 RMS of difference density:                            0.03807504815291
 Gap [au]:  0.58165498
 ALPHA OCC:   9
 BETA  OCC:   9
 
 ***HARTREE-FOCK ENERGY IN STEP   1 IS       -150.3034692190384760 [AU]
 ======================================================================
 ITERATION STEP   2
 CPU time [min]:     0.018                   Wall time [min]:     0.006
 

 SCF control                  : diis
 Damping factor/level shift   : 0.000/0.000
 DIIS [start/end/frequency]   :   2 / 50 /  1

 Constructing Fock-matrix...
 Number of integral batches:    1
 Occupied indices per batch:    9
 CPU time [min]:     0.025                   Wall time [min]:     0.006
 
 Gradient norm:      1.5998E-01
 DIIS is running in this iteration step.
 RMS of [F,P]:                                         0.00727370423903
 RMS of difference density:                            0.01047664039730
 Gap [au]:  0.44516227
 ALPHA OCC:   9
 BETA  OCC:   9
 
 ***HARTREE-FOCK ENERGY IN STEP   2 IS       -150.7254441123547792 [AU]
 
 Step comparison  Energy Drift [au]  DIIS error drift  Gradient drift
        1            4.2197E-01         4.5778E-02       2.9904E+00
        2            1.5073E+02         1.0000E-11       2.9904E+00
 ======================================================================
 ITERATION STEP   3
 CPU time [min]:     0.028                   Wall time [min]:     0.006
 

 SCF control                  : diis
 Damping factor/level shift   : 0.000/0.000
 DIIS [start/end/frequency]   :   2 / 50 /  1

 Constructing Fock-matrix...
 Number of integral batches:    1
 Occupied indices per batch:    9
 CPU time [min]:     0.036                   Wall time [min]:     0.006
 
 Gradient norm:      8.5145E-02
 DIIS is running in this iteration step.
 RMS of [F,P]:                                         0.00342804910320
 RMS of difference density:                            0.00346159664854
 Gap [au]:  0.49755884
 ALPHA OCC:   9
 BETA  OCC:   9
 
 ***HARTREE-FOCK ENERGY IN STEP   3 IS       -150.7494923414515995 [AU]
 
 Step comparison  Energy Drift [au]  DIIS error drift  Gradient drift
        2            2.4048E-02         3.8457E-03       7.4839E-02
 ======================================================================
 ITERATION STEP   4
 CPU time [min]:     0.039                   Wall time [min]:     0.006
 

 SCF control                  : diis
 Damping factor/level shift   : 0.000/0.000
 DIIS [start/end/frequency]   :   2 / 50 /  1

 Constructing Fock-matrix...
 Number of integral batches:    1
 Occupied indices per batch:    9
 CPU time [min]:     0.047                   Wall time [min]:     0.007
 
 Gradient norm:      3.6324E-02
 DIIS is running in this iteration step.
 RMS of [F,P]:                                         0.00092680684839
 RMS of difference density:                            0.00184922129305
 Gap [au]:  0.49045866
 ALPHA OCC:   9
 BETA  OCC:   9
 
 ***HARTREE-FOCK ENERGY IN STEP   4 IS       -150.7548413549598365 [AU]
 
 Step comparison  Energy Drift [au]  DIIS error drift  Gradient drift
        3            5.3490E-03         2.5012E-03       4.8821E-02
 ======================================================================
 ITERATION STEP   5
 CPU time [min]:     0.050                   Wall time [min]:     0.007
 

 SCF control                  : diis
 Damping factor/level shift   : 0.000/0.000
 DIIS [start/end/frequency]   :   2 / 50 /  1

 Constructing Fock-matrix...
 Number of integral batches:    1
 Occupied indices per batch:    9
 CPU time [min]:     0.057                   Wall time [min]:     0.007
 
 Gradient norm:      1.8711E-02
 DIIS is running in this iteration step.
 RMS of [F,P]:                                         0.00035524143768
 RMS of difference density:                            0.00093991852928
 Gap [au]:  0.49228025
 ALPHA OCC:   9
 BETA  OCC:   9
 
 ***HARTREE-FOCK ENERGY IN STEP   5 IS       -150.7560699913123585 [AU]
 
 Step comparison  Energy Drift [au]  DIIS error drift  Gradient drift
        4            1.2286E-03         5.7157E-04       1.7613E-02
 ======================================================================
 ITERATION STEP   6
 CPU time [min]:     0.061                   Wall time [min]:     0.007
 

 SCF control                  : diis
 Damping factor/level shift   : 0.000/0.000
 DIIS [start/end/frequency]   :   2 / 50 /  1

 Constructing Fock-matrix...
 Number of integral batches:    1
 Occupied indices per batch:    9
 CPU time [min]:     0.068                   Wall time [min]:     0.008
 
 Gradient norm:      6.3948E-03
 DIIS is running in this iteration step.
 RMS of [F,P]:                                         0.00013213869810
 RMS of difference density:                            0.00046828196953
 Gap [au]:  0.49272716
 ALPHA OCC:   9
 BETA  OCC:   9
 
 ***HARTREE-FOCK ENERGY IN STEP   6 IS       -150.7563339637340505 [AU]
 
 Step comparison  Energy Drift [au]  DIIS error drift  Gradient drift
        5            2.6397E-04         2.2310E-04       1.2316E-02
 ======================================================================
 ITERATION STEP   7
 CPU time [min]:     0.071                   Wall time [min]:     0.008
 

 SCF control                  : diis
 Damping factor/level shift   : 0.000/0.000
 DIIS [start/end/frequency]   :   2 / 50 /  1

 Constructing Fock-matrix...
 Number of integral batches:    1
 Occupied indices per batch:    9
 CPU time [min]:     0.079                   Wall time [min]:     0.008
 
 Gradient norm:      9.6727E-04
 DIIS is running in this iteration step.
 RMS of [F,P]:                                         0.00002404751328
 RMS of difference density:                            0.00008818052032
 Gap [au]:  0.49273449
 ALPHA OCC:   9
 BETA  OCC:   9
 
 ***HARTREE-FOCK ENERGY IN STEP   7 IS       -150.7563760786482305 [AU]
 
 Step comparison  Energy Drift [au]  DIIS error drift  Gradient drift
        6            4.2115E-05         1.0809E-04       5.4275E-03
 ======================================================================
 ITERATION STEP   8
 CPU time [min]:     0.082                   Wall time [min]:     0.008
 

 SCF control                  : diis
 Damping factor/level shift   : 0.000/0.000
 DIIS [start/end/frequency]   :   2 / 50 /  1

 Constructing Fock-matrix...
 Number of integral batches:    1
 Occupied indices per batch:    9
 CPU time [min]:     0.090                   Wall time [min]:     0.009
 
 Gradient norm:      6.9553E-05
 DIIS is running in this iteration step.
 RMS of [F,P]:                                         0.00000207780367
 RMS of difference density:                            0.00000457588732
 Gap [au]:  0.49273841
 ALPHA OCC:   9
 BETA  OCC:   9
 
 ***HARTREE-FOCK ENERGY IN STEP   8 IS       -150.7563773398116496 [AU]
 
 Step comparison  Energy Drift [au]  DIIS error drift  Gradient drift
        7            1.2612E-06         2.1970E-05       8.9771E-04
 ======================================================================
 ITERATION STEP   9
 CPU time [min]:     0.093                   Wall time [min]:     0.009
 

 SCF control                  : diis
 Damping factor/level shift   : 0.000/0.000
 DIIS [start/end/frequency]   :   2 / 50 /  1

 Constructing Fock-matrix...
 Number of integral batches:    1
 Occupied indices per batch:    9
 CPU time [min]:     0.101                   Wall time [min]:     0.009
 
 Gradient norm:      8.8084E-06
 DIIS is running in this iteration step.
 RMS of [F,P]:                                         0.00000030815210
 RMS of difference density:                            0.00000061900165
 Gap [au]:  0.49273943
 ALPHA OCC:   9
 BETA  OCC:   9
 
 ***HARTREE-FOCK ENERGY IN STEP   9 IS       -150.7563773449363111 [AU]
 
 Step comparison  Energy Drift [au]  DIIS error drift  Gradient drift
        8            5.1247E-09         1.7697E-06       6.0745E-05
 ======================================================================
 ITERATION STEP  10
 CPU time [min]:     0.104                   Wall time [min]:     0.009
 

 SCF control                  : diis
 Damping factor/level shift   : 0.000/0.000
 DIIS [start/end/frequency]   :   2 / 50 /  1

 Constructing Fock-matrix...
 Number of integral batches:    1
 Occupied indices per batch:    9
 CPU time [min]:     0.112                   Wall time [min]:     0.010
 
 Gradient norm:      1.3443E-06
 DIIS is running in this iteration step.
 RMS of [F,P]:                                         0.00000004669631
 RMS of difference density:                            0.00000011796795
 Gap [au]:  0.49274006
 ALPHA OCC:   9
 BETA  OCC:   9
 
 ***HARTREE-FOCK ENERGY IN STEP  10 IS       -150.7563773450538633 [AU]
 
 Step comparison  Energy Drift [au]  DIIS error drift  Gradient drift
        9            1.1755E-10         2.6146E-07       7.4640E-06
 ======================================================================
 ITERATION STEP  11
 CPU time [min]:     0.115                   Wall time [min]:     0.010
 

 SCF control                  : diis
 Damping factor/level shift   : 0.000/0.000
 DIIS [start/end/frequency]   :   2 / 50 /  1

 Constructing Fock-matrix...
 Number of integral batches:    1
 Occupied indices per batch:    9
 CPU time [min]:     0.123                   Wall time [min]:     0.010
 
 Gradient norm:      2.1862E-07
 DIIS is running in this iteration step.
 RMS of [F,P]:                                         0.00000000845829
 RMS of difference density:                            0.00000001734332
 Gap [au]:  0.49274010
 ALPHA OCC:   9
 BETA  OCC:   9
 
 ***HARTREE-FOCK ENERGY IN STEP  11 IS       -150.7563773450567055 [AU]
 
 Step comparison  Energy Drift [au]  DIIS error drift  Gradient drift
       10            2.8422E-12         3.8238E-08       1.1257E-06
 ======================================================================
 ITERATION STEP  12
 CPU time [min]:     0.126                   Wall time [min]:     0.010
 

 SCF control                  : diis
 Damping factor/level shift   : 0.000/0.000
 DIIS [start/end/frequency]   :   2 / 50 /  1

 Constructing Fock-matrix...
 Number of integral batches:    1
 Occupied indices per batch:    9
 CPU time [min]:     0.134                   Wall time [min]:     0.010
 
 Gradient norm:      3.5056E-08
 DIIS is running in this iteration step.
 RMS of [F,P]:                                         0.00000000141772
 RMS of difference density:                            0.00000000348124
 Gap [au]:  0.49274012
 ALPHA OCC:   9
 BETA  OCC:   9
 
 ***HARTREE-FOCK ENERGY IN STEP  12 IS       -150.7563773450567055 [AU]
 
 Step comparison  Energy Drift [au]  DIIS error drift  Gradient drift
       11            0.0000E+00         7.0406E-09       1.8356E-07
 Warning! The energy goes uphill (with respect to previous step).
 ======================================================================
 ITERATION STEP  13
 CPU time [min]:     0.136                   Wall time [min]:     0.011
 

 SCF control                  : diis
 Damping factor/level shift   : 0.000/0.000
 DIIS [start/end/frequency]   :   2 / 50 /  1

 Constructing Fock-matrix...
 Number of integral batches:    1
 Occupied indices per batch:    9
 CPU time [min]:     0.144                   Wall time [min]:     0.011
 
 Gradient norm:      8.2761E-09
 DIIS is running in this iteration step.
 RMS of [F,P]:                                         0.00000000030283
 RMS of difference density:                            0.00000000065956
 Gap [au]:  0.49274012
 ALPHA OCC:   9
 BETA  OCC:   9
 
 ***HARTREE-FOCK ENERGY IN STEP  13 IS       -150.7563773450567339 [AU]
 
 Step comparison  Energy Drift [au]  DIIS error drift  Gradient drift
       12            2.8422E-14         1.1149E-09       2.6779E-08
 ======================================================================
 ITERATION STEP  14
 CPU time [min]:     0.147                   Wall time [min]:     0.011
 

 SCF control                  : diis
 Damping factor/level shift   : 0.000/0.000
 DIIS [start/end/frequency]   :   2 / 50 /  1

 Constructing Fock-matrix...
 Number of integral batches:    1
 Occupied indices per batch:    9
 CPU time [min]:     0.155                   Wall time [min]:     0.011
 
 Gradient norm:      1.4748E-09
 DIIS is running in this iteration step.
 RMS of [F,P]:                                         0.00000000004477
 RMS of difference density:                            0.00000000009537
 Gap [au]:  0.49274012
 ALPHA OCC:   9
 BETA  OCC:   9
 
 ***HARTREE-FOCK ENERGY IN STEP  14 IS       -150.7563773450567055 [AU]
 
 Step comparison  Energy Drift [au]  DIIS error drift  Gradient drift
       13           -2.8422E-14         2.5806E-10       6.8012E-09
 Warning! The energy goes uphill (with respect to previous step).
 ======================================================================
 ITERATION STEP  15
 CPU time [min]:     0.158                   Wall time [min]:     0.011
 

 SCF control                  : diis
 Damping factor/level shift   : 0.000/0.000
 DIIS [start/end/frequency]   :   2 / 50 /  1

 Constructing Fock-matrix...
 Number of integral batches:    1
 Occupied indices per batch:    9
 CPU time [min]:     0.166                   Wall time [min]:     0.012
 
 Gradient norm:      2.9666E-10
 DIIS is running in this iteration step.
 RMS of [F,P]:                                         0.00000000001079
 RMS of difference density:                            0.00000000001936
 Gap [au]:  0.49274012
 ALPHA OCC:   9
 BETA  OCC:   9
 
 ***HARTREE-FOCK ENERGY IN STEP  15 IS       -150.7563773450565918 [AU]
 
 Step comparison  Energy Drift [au]  DIIS error drift  Gradient drift
       14           -1.1369E-13         3.3979E-11       1.1782E-09
 Warning! The energy goes uphill (with respect to previous step).
 ======================================================================
 ITERATION STEP  16
 CPU time [min]:     0.169                   Wall time [min]:     0.012
 

 SCF control                  : diis
 Damping factor/level shift   : 0.000/0.000
 DIIS [start/end/frequency]   :   2 / 50 /  1

 Constructing Fock-matrix...
 Number of integral batches:    1
 Occupied indices per batch:    9
 CPU time [min]:     0.176                   Wall time [min]:     0.012
 
 Gradient norm:      3.3813E-11
 DIIS is running in this iteration step.
 RMS of [F,P]:                                         0.00000000000114
 RMS of difference density:                            0.00000000000281
 Gap [au]:  0.49274012
 ALPHA OCC:   9
 BETA  OCC:   9
 
 ***HARTREE-FOCK ENERGY IN STEP  16 IS       -150.7563773450568192 [AU]
 
 Step comparison  Energy Drift [au]  DIIS error drift  Gradient drift
       15            2.2737E-13         9.6459E-12       2.6284E-10
 ======================================================================
 
 SUCCESS...
 THE SCF ITERATION HAS CONVERGED!
 
                   A   
 FINAL ALPHA OCC:   9
 FINAL BETA  OCC:   9
 
 ***FINAL HARTREE-FOCK ENERGY:       -150.7563773450568192 [AU]
 
 Orbital energies [au]:
      Irrep         Alpha          Beta
    1   A        -20.638836     -20.638836
    2   A        -20.638572     -20.638572
    3   A         -1.455536      -1.455536
    4   A         -1.226981      -1.226981
    5   A         -0.782431      -0.782431
    6   A         -0.621308      -0.621308
    7   A         -0.583630      -0.583630
    8   A         -0.548027      -0.548027
    9   A         -0.458131      -0.458131
 
   10   A          0.034609       0.034609
   11   A          0.043442       0.043442
   12   A          0.142216       0.142216
   13   A          0.178745       0.178745
   14   A          0.199821       0.199821
   15   A          0.206964       0.206964
   16   A          0.208996       0.208996
   17   A          0.239019       0.239019
   18   A          0.262210       0.262210
   19   A          0.286521       0.286521
   20   A          0.324489       0.324489
   21   A          0.366823       0.366823
   22   A          0.386789       0.386789
   23   A          0.423646       0.423646
   24   A          0.427793       0.427793
   25   A          0.465907       0.465907
   26   A          0.570502       0.570502
   27   A          0.627436       0.627436
   28   A          0.662861       0.662861
   29   A          0.810435       0.810435
   30   A          0.953632       0.953632
   31   A          0.994962       0.994962
   32   A          1.003677       1.003677
   33   A          1.078765       1.078765
   34   A          1.102312       1.102312
   35   A          1.214455       1.214455
   36   A          1.222819       1.222819
   37   A          1.302708       1.302708
   38   A          1.339975       1.339975
   39   A          1.370252       1.370252
   40   A          1.384856       1.384856
   41   A          1.546534       1.546534
   42   A          1.610208       1.610208
   43   A          1.707069       1.707069
   44   A          1.801366       1.801366
   45   A          1.942059       1.942059
   46   A          2.000425       2.000425
   47   A          2.211331       2.211331
   48   A          2.346997       2.346997
   49   A          2.384036       2.384036
   50   A          2.510174       2.510174
   51   A          2.566585       2.566585
   52   A          2.815702       2.815702
   53   A          3.003619       3.003619
   54   A          3.336463       3.336463
   55   A          3.470192       3.470192
   56   A          3.497762       3.497762
   57   A          3.606667       3.606667
   58   A          3.634232       3.634232
   59   A          3.680829       3.680829
   60   A          3.684305       3.684305
   61   A          3.799281       3.799281
   62   A          3.992422       3.992422
   63   A          4.173911       4.173911
   64   A          4.395705       4.395705
 
 RETURNING FROM SCF ALGORITHM
 ======================================================================

 ************************ 2025-05-05 19:41:38 *************************
 Executing integ...

 Allocation of 322.3 Gbytes of memory...
 
 
 Basis set information:
 
 Maximum angular momentum: f
 Maximum number of contracted Gaussians:   11
 Maximum number of primitive Gaussians:    11
 Spherical harmonic GTOs are used.
 
 
 Conventional basis set:
 
   1  O  aug-cc-pvdz [ 10s 5p 2d | 4s 3p 2d ]
   2  O  aug-cc-pvdz [ 10s 5p 2d | 4s 3p 2d ]
   3  H  aug-cc-pvdz [ 5s 2p | 3s 2p ]
   4  H  aug-cc-pvdz [ 5s 2p | 3s 2p ]
 
 Basis functions:
            1             2             3             4             5             6             7             8             9            10
    0    1O1s          1O2s          1O3s          1O4s          1O1pz         1O1py         1O1px         1O2pz         1O2py         1O2px     
    1    1O3pz         1O3py         1O3px         1O1d-2        1O1d-1        1O1d0         1O1d+1        1O1d+2        1O2d-2        1O2d-1    
    2    1O2d0         1O2d+1        1O2d+2        2O1s          2O2s          2O3s          2O4s          2O1pz         2O1py         2O1px     
    3    2O2pz         2O2py         2O2px         2O3pz         2O3py         2O3px         2O1d-2        2O1d-1        2O1d0         2O1d+1    
    4    2O1d+2        2O2d-2        2O2d-1        2O2d0         2O2d+1        2O2d+2        3H1s          3H2s          3H3s          3H1pz     
    5    3H1py         3H1px         3H2pz         3H2py         3H2px         4H1s          4H2s          4H3s          4H1pz         4H1py     
    6    4H1px         4H2pz         4H2py         4H2px     
 
 Maximum number of basis functions per shell:   10
 Total number of basis functions:     64
 
 
 Fitting basis set for the SCF calculation:
 
   1  O  aug-cc-pvdz-ri-jk [ 11s 8p 6d 3f | 11s 8p 6d 3f ]
   2  O  aug-cc-pvdz-ri-jk [ 11s 8p 6d 3f | 11s 8p 6d 3f ]
   3  H  aug-cc-pvdz-ri-jk [ 5s 4p 3d | 5s 4p 3d ]
   4  H  aug-cc-pvdz-ri-jk [ 5s 4p 3d | 5s 4p 3d ]
 
 Basis functions:
            1             2             3             4             5             6             7             8             9            10
    0    1O1s          1O2s          1O3s          1O4s          1O5s          1O6s          1O7s          1O8s          1O9s          1O10s     
    1    1O11s         1O1pz         1O1py         1O1px         1O2pz         1O2py         1O2px         1O3pz         1O3py         1O3px     
    2    1O4pz         1O4py         1O4px         1O5pz         1O5py         1O5px         1O6pz         1O6py         1O6px         1O7pz     
    3    1O7py         1O7px         1O8pz         1O8py         1O8px         1O1d-2        1O1d-1        1O1d0         1O1d+1        1O1d+2    
    4    1O2d-2        1O2d-1        1O2d0         1O2d+1        1O2d+2        1O3d-2        1O3d-1        1O3d0         1O3d+1        1O3d+2    
    5    1O4d-2        1O4d-1        1O4d0         1O4d+1        1O4d+2        1O5d-2        1O5d-1        1O5d0         1O5d+1        1O5d+2    
    6    1O6d-2        1O6d-1        1O6d0         1O6d+1        1O6d+2        1O1f-3        1O1f-2        1O1f-1        1O1f0         1O1f+1    
    7    1O1f+2        1O1f+3        1O2f-3        1O2f-2        1O2f-1        1O2f0         1O2f+1        1O2f+2        1O2f+3        1O3f-3    
    8    1O3f-2        1O3f-1        1O3f0         1O3f+1        1O3f+2        1O3f+3        2O1s          2O2s          2O3s          2O4s      
    9    2O5s          2O6s          2O7s          2O8s          2O9s          2O10s         2O11s         2O1pz         2O1py         2O1px     
   10    2O2pz         2O2py         2O2px         2O3pz         2O3py         2O3px         2O4pz         2O4py         2O4px         2O5pz     
   11    2O5py         2O5px         2O6pz         2O6py         2O6px         2O7pz         2O7py         2O7px         2O8pz         2O8py     
   12    2O8px         2O1d-2        2O1d-1        2O1d0         2O1d+1        2O1d+2        2O2d-2        2O2d-1        2O2d0         2O2d+1    
   13    2O2d+2        2O3d-2        2O3d-1        2O3d0         2O3d+1        2O3d+2        2O4d-2        2O4d-1        2O4d0         2O4d+1    
   14    2O4d+2        2O5d-2        2O5d-1        2O5d0         2O5d+1        2O5d+2        2O6d-2        2O6d-1        2O6d0         2O6d+1    
   15    2O6d+2        2O1f-3        2O1f-2        2O1f-1        2O1f0         2O1f+1        2O1f+2        2O1f+3        2O2f-3        2O2f-2    
   16    2O2f-1        2O2f0         2O2f+1        2O2f+2        2O2f+3        2O3f-3        2O3f-2        2O3f-1        2O3f0         2O3f+1    
   17    2O3f+2        2O3f+3        3H1s          3H2s          3H3s          3H4s          3H5s          3H1pz         3H1py         3H1px     
   18    3H2pz         3H2py         3H2px         3H3pz         3H3py         3H3px         3H4pz         3H4py         3H4px         3H1d-2    
   19    3H1d-1        3H1d0         3H1d+1        3H1d+2        3H2d-2        3H2d-1        3H2d0         3H2d+1        3H2d+2        3H3d-2    
   20    3H3d-1        3H3d0         3H3d+1        3H3d+2        4H1s          4H2s          4H3s          4H4s          4H5s          4H1pz     
   21    4H1py         4H1px         4H2pz         4H2py         4H2px         4H3pz         4H3py         4H3px         4H4pz         4H4py     
   22    4H4px         4H1d-2        4H1d-1        4H1d0         4H1d+1        4H1d+2        4H2d-2        4H2d-1        4H2d0         4H2d+1    
   23    4H2d+2        4H3d-2        4H3d-1        4H3d0         4H3d+1        4H3d+2    
 
 Maximum number of basis functions per shell:   30
 Total number of basis functions:    236
 
 
 Fitting basis set for the correlation calculation:
 
   1  O  aug-cc-pvdz-ri [ 8s 6p 5d 3f | 8s 6p 5d 3f ]
   2  O  aug-cc-pvdz-ri [ 8s 6p 5d 3f | 8s 6p 5d 3f ]
   3  H  aug-cc-pvdz-ri [ 4s 3p 2d | 4s 3p 2d ]
   4  H  aug-cc-pvdz-ri [ 4s 3p 2d | 4s 3p 2d ]
 
 Basis functions:
            1             2             3             4             5             6             7             8             9            10
    0    1O1s          1O2s          1O3s          1O4s          1O5s          1O6s          1O7s          1O8s          1O1pz         1O1py     
    1    1O1px         1O2pz         1O2py         1O2px         1O3pz         1O3py         1O3px         1O4pz         1O4py         1O4px     
    2    1O5pz         1O5py         1O5px         1O6pz         1O6py         1O6px         1O1d-2        1O1d-1        1O1d0         1O1d+1    
    3    1O1d+2        1O2d-2        1O2d-1        1O2d0         1O2d+1        1O2d+2        1O3d-2        1O3d-1        1O3d0         1O3d+1    
    4    1O3d+2        1O4d-2        1O4d-1        1O4d0         1O4d+1        1O4d+2        1O5d-2        1O5d-1        1O5d0         1O5d+1    
    5    1O5d+2        1O1f-3        1O1f-2        1O1f-1        1O1f0         1O1f+1        1O1f+2        1O1f+3        1O2f-3        1O2f-2    
    6    1O2f-1        1O2f0         1O2f+1        1O2f+2        1O2f+3        1O3f-3        1O3f-2        1O3f-1        1O3f0         1O3f+1    
    7    1O3f+2        1O3f+3        2O1s          2O2s          2O3s          2O4s          2O5s          2O6s          2O7s          2O8s      
    8    2O1pz         2O1py         2O1px         2O2pz         2O2py         2O2px         2O3pz         2O3py         2O3px         2O4pz     
    9    2O4py         2O4px         2O5pz         2O5py         2O5px         2O6pz         2O6py         2O6px         2O1d-2        2O1d-1    
   10    2O1d0         2O1d+1        2O1d+2        2O2d-2        2O2d-1        2O2d0         2O2d+1        2O2d+2        2O3d-2        2O3d-1    
   11    2O3d0         2O3d+1        2O3d+2        2O4d-2        2O4d-1        2O4d0         2O4d+1        2O4d+2        2O5d-2        2O5d-1    
   12    2O5d0         2O5d+1        2O5d+2        2O1f-3        2O1f-2        2O1f-1        2O1f0         2O1f+1        2O1f+2        2O1f+3    
   13    2O2f-3        2O2f-2        2O2f-1        2O2f0         2O2f+1        2O2f+2        2O2f+3        2O3f-3        2O3f-2        2O3f-1    
   14    2O3f0         2O3f+1        2O3f+2        2O3f+3        3H1s          3H2s          3H3s          3H4s          3H1pz         3H1py     
   15    3H1px         3H2pz         3H2py         3H2px         3H3pz         3H3py         3H3px         3H1d-2        3H1d-1        3H1d0     
   16    3H1d+1        3H1d+2        3H2d-2        3H2d-1        3H2d0         3H2d+1        3H2d+2        4H1s          4H2s          4H3s      
   17    4H4s          4H1pz         4H1py         4H1px         4H2pz         4H2py         4H2px         4H3pz         4H3py         4H3px     
   18    4H1d-2        4H1d-1        4H1d0         4H1d+1        4H1d+2        4H2d-2        4H2d-1        4H2d0         4H2d+1        4H2d+2    
 
 Maximum number of basis functions per shell:   30
 Total number of basis functions:    190
 
 
 Calculation of prescreening integrals...
 CPU time [min]:     0.009                   Wall time [min]:     0.003
 
 Calculation of two-center Coulomb integrals...
   2% done.
  14% done.
  27% done.
  42% done.
  58% done.
  77% done.
  90% done.
 100% done.
 CPU time [min]:     0.012                   Wall time [min]:     0.003
 
 Calculation of inverse square root of the two-center integral matrix...
 CPU time [min]:     0.017                   Wall time [min]:     0.004
 
 Calculation of three-center Coulomb integrals...
   4% done.
  18% done.
  32% done.
  52% done.
  74% done.
 100% done.
 CPU time [min]:     0.025                   Wall time [min]:     0.004

 ************************ 2025-05-05 19:41:38 *************************
 Executing drpa...

 Three-index integral transformation
 
 Allocation of 322.3 Gbytes of memory...
 Minimal memory requirement for (ai|P) and (ij|P) integrals:        0.7 MB

 Calculating (ai|P) and (ij|P) integrals...
 Number of integral batches:    1
 Occupied indices per batch:    7
 
 Transforming integrals of batch 1...
 IRAN                    28                     1                     0
 ROUTE    
IRAN IO: PH Dimensions: aux./occ./virt.:   190     7    55
IRAN IO: HH Dimensions: aux./occ.:   190     7
 CPU time [min]:     0.017                   Wall time [min]:     0.003
 

 Constructing MP2 natural orbitals...
Using    4natural orbitals per occupied
Warning: Using all virtual orbitals
 Total number of virtual orbitals:      55
 Number of virtual natural orbitals:    28  (50.91%)
 
IRAN IO: recan. Particle Energies     28
--      1      0.2339828410870246
--      2      0.3936612590443012
--      3      0.4606025506000479
--      4      0.7627895951357758
--      5      0.7803390856087108
--      6      0.8776462686878328
--      7      0.8957323814930362
--      8      1.0602442001845920
--      9      1.0756122487099242
--     10      1.1123091132437812
--     11      1.2081808319928879
--     12      1.2292897877668179
--     13      1.3265794103073223
--     14      1.3314285707067648
--     15      1.4910967960423218
--     16      1.8714361149990009
--     17      1.9273305227514179
--     18      2.0383519204347289
--     19      2.5720945255094860
--     20      2.7354989927772904
--     21      2.7865206452845905
--     22      2.8570767500477068
--     23      2.9109513278310697
--     24      3.2596225509233698
--     25      3.3069076933162265
--     26      3.5044134489942591
--     27      3.5445450220014911
--     28      4.0635247009652637
 Transforming (ai|P) integrals to the NO basis...
 Number of integral batches:    1
 Occupied indices per batch:    7
 
 Transforming integrals of batch 1 to the NO basis...
IRAN IO: PH Dimensions: aux./occ./virt.:   190     7    28
IRAN IO: HH Dimensions: aux./occ.:   190     7
 CPU time [min]:     0.020                   Wall time [min]:     0.003

 Calculating (ab|P) integrals...
 Minimal memory requirement for (ab|P) integrals:        0.3 MB
 Number of integral batches:    1
 Virtual indices per batch:    28

 Transforming integrals of batch 1...
IRAN IO: PP Dimensions: aug./virt.:    190    28
                     1                   406                     0
                    28
 CPU time [min]:     0.026                   Wall time [min]:     0.003
 

 Results in full basis:
 
 
 Reference energy [au]:                      -150.756377345057
 DF-MP2 singlet pair energy [au]:              -0.308599964039
 DF-MP2 triplet pair energy [au]:              -0.107855048735
 DF-SCS-MP2 correlation energy [au]:           -0.406271639758
 DF-SCS-MP2 energy [au]:                     -151.162648984815
 DF-SOS-MP2 correlation energy [au]:           -0.401179953250
 DF-SOS-MP2 energy [au]:                     -151.157557298307
 DF-MP2 correlation energy [au]:               -0.416455012774
 DF-MP2 energy [au]:                         -151.172832357831

 Results in FNO basis:
 
 
 Reference energy [au]:                      -150.756377345057
 DF-MP2 singlet pair energy [au]:              -0.296536194058
 DF-MP2 triplet pair energy [au]:              -0.105404142770
 DF-SCS-MP2 correlation energy [au]:           -0.390978147127
 DF-SCS-MP2 energy [au]:                     -151.147355492184
 DF-SOS-MP2 correlation energy [au]:           -0.385497052276
 DF-SOS-MP2 energy [au]:                     -151.141874397333
 DF-MP2 correlation energy [au]:               -0.401940336828
 DF-MP2 energy [au]:                         -151.158317681885

 ************************ 2025-05-05 19:41:39 *************************
 Executing ccsd...

 Allocation of 322.3 Gbytes of memory...

 Direct DF-CCSD calculation
 
 Convergence criterion:  1.0E-10
 
 Number of occupied/virtual/auxiliary orbitals:     7    28   190
      6.80 MB is the minimal memory requirement for CCSD
 
 Reference energy [au]:            -150.756377345057
 T1 contribution [au]:                0.000000000000
 Same spin MP2 energy [au]:          -0.105404142770
 Opposite spin MP2 energy [au]:      -0.296536194058
 MP2 correlation energy [au]:        -0.401940336828
 Total MP2 energy [au]:            -151.158317681885
 MP2 correction [au]:                -0.014514675946
 
 
 CPU time [min]:     0.004                   Wall time [min]:     0.002
 
 Starting CCSD iterations...
 
                     Residual norm          Energy
 Iteration  1        0.172307066531     -151.157597648574
 Iteration  2        0.049621548943     -151.168236217662
 Iteration  3        0.018506550734     -151.170481741384
 Iteration  4        0.005182406298     -151.170504042132
 Iteration  5        0.002187633979     -151.170562144119
 Iteration  6        0.000984037492     -151.170548983779
 Iteration  7        0.000322509123     -151.170533886147
 Iteration  8        0.000098442650     -151.170533945795
 Iteration  9        0.000030961638     -151.170534190882
 Iteration 10        0.000012215436     -151.170534385959
 Iteration 11        0.000004670993     -151.170534453496
 Iteration 12        0.000001385351     -151.170534438451
 Iteration 13        0.000000410997     -151.170534415575
 Iteration 14        0.000000108312     -151.170534420103
 Iteration 15        0.000000027448     -151.170534420425
 Iteration 16        0.000000006633     -151.170534420120
 Iteration 17        0.000000001572     -151.170534420180
 Iteration 18        0.000000000417     -151.170534420184
 
 CCSD iteration has converged in 18 steps.
        5.12 MB memory was utilized by CCSD
 
 T1 diagnostic:      1.100E-02            D1 diagnostic:      2.676E-02
 
 T1 contribution [au]:                                  0.000000000000
 PPL energy contribution [au]:                          0.085214119156
 Scaled PPL energy contribution [au]:                   0.088233818885

 OS-PPL energy contribution [au]:                       0.070662591138
 Scaled OS-PPL energy contribution [au]:                0.073473785095
 SS-PPL energy contribution [au]:                       0.014551528018
 Scaled SS-PPL energy contribution [au]:                0.014883284348

 Opposite spin CCSD energy [au]:                       -0.323360699201
 Same spin CCSD energy [au]:                           -0.090796375926
 CCSD correlation energy [au]:                         -0.414157075127
 CCSD correlation energy + MP2 correction [au]:        -0.428671751073
 CCSD correlation energy + MP2 + PPL corr. [au]:       -0.425652051344
 Total CCSD energy [au]:                             -151.170534420184
 Total CCSD energy + MP2 correction [au]:            -151.185049096130
 Total CCSD energy + MP2 + PPL corr. [au]:           -151.182029396401
 
 CPU time [min]:     0.129                   Wall time [min]:     0.007
 
 ************************ 2025-05-05 19:41:39 *************************
                      Normal termination of mrcc.
 **********************************************************************
