 **********************************************************************
                          MRCC program system
 **********************************************************************
 
                              Written by
     Mihaly Kallay, Peter R. Nagy, David Mester, Laszlo Gyevi-Nagy,
        Jozsef Csoka, P. Bernat Szabo, Zoltan Rolik, Gyula Samu,
     Jozsef Csontos, Bence Hegely, Adam Ganyecz, Istvan Ladjanszki,
       Lorant Szegedy, Bence Ladoczki, Klara Petrov, Mate Farkas,
                    Pal D. Mezei, and Reka A. Horvath
 
        Department of Physical Chemistry and Materials Science
            Budapest University of Technology and Economics
                  Budapest P.O.Box 91, H-1521 Hungary
 
                              www.mrcc.hu
 
                      Release date: March 18, 2022

 ************************ 2025-05-05 19:39:48 *************************
 Executing minp...

 Reading input from MINP...
 
 Input file:
 
basis=aug-cc-pvdz
#calc=DF-CCSD
calc=DF-CCSD
eps=0.125000
naf_cor=off
cctol=10
ccsdthreads=24
ptthreads=24
verbosity=3
symm=off
mem=330000MB

geom=xyz
4

O      0.0000     0.0000     0.0000
O      1.4500     0.0000     0.0000
H     -0.6000     0.7700     0.0000
H      2.0500     0.7700     0.0000

 
 
 Checking keyword combinations...
 
 Keywords:
 
 active=none
 agrid=ld0006-ld0590
 agrid_pssp=ld0006-ld0194
 agrid_pssp_sm=ld0006-ld0074
 basis=aug-cc-pvdz
 basis_sm=none
 basopt=off
 bfbasis=none
 bfgsmem=10
 bfgstol=1.0d-3
 bpcompo=0.985
 bpcompv=0.98
 bpdfo=0.985
 bpocc=0.985
 bppdo=0.985
 bppdv=0.98
 bpedo=0.985
 bpedv=0.98
 calc=ccsd
 ccmaxit=50
 ccprog=ccsd
 ccsdalg=dfdirect
 ccsdmkl=seq
 ccsdrest=trf
 ccsdthreads=24
 cctol=10
 charge=0
 cialg=auto
 ciguess=off
 cmpgrp=auto
 comprest=off
 core=frozen
 corembed=off
 csapprox=off
 cvs=off
 dboc=off
 delocsomofact=
 dendec=cholesky
 dens=0
 dfalg=lineq
 dfbasis_cab=none
 dfbasis_cor=auto
 dfbasis_scf=auto
 dfbasis_scf_sm=auto
 dfintran=drpa
 dft=off
 dhexc=adc(2)
 diag=david
 docc=
 domrad=10.d0
 drpaalg=fit
 dual=off
 dual_df=off
 ecp=auto
 edisp=off
 edisp_embed=off
 embed=off
 etemp=300
 epert=none
 eps=0.125000
 espcharge=off
 excrad=0.d0
 excrad_fin=0.000000000D+00
 fitting=coulomb
 fmm=off
 fmmord=8
 freq=off
 gamma=1.d0
 gauss=spher
 geom=xyz
 gopt=off
 ghost=none
 gtol=7
 grdens=off
 gridbatch_cos=2000
 grtol=10
 guido_ct=off
 hamilton=dc
 iface=none
 intalg=auto
 itol=14
 laptol=1.d-2
 lccoporder=trffirst
 lcorthr=normal
 lccrest=off
 lmp2dens=on
 lnoepso=0.d0
 lnoepsv=5e-5
 boysalg=jacobi
 localcc=off
 localcorrsymm=off
 locintrf=disk
 mact=
 maxact=off
 maxdim=100
 maxex=0
 maxmicroit=100
 mcscfiguess=hf
 mem=330000mb
 mmprog=
 molden=on
 mpitasks=1
 mulmet=0
 mult=
 nacto=0
 nactv=0
 naf_amp=1.d-2
 naf_cor=off
 naf_scf=off
 nafalg=albe
 naftyp=
 nchol=auto
 ndeps=1e-3
 nstate=1
 nsing=0
 nto=off
 ntrip=0
 occ=
 occri=off
 oniom=off
 oniom_eechg=off
 oniom_pcm=off
 oniom_qcorr=off
 optalg=
 optmaxit=50
 optetol=1e-6
 optex=0
 optgtol=1e-4
 optstol=1e-3
 orblocc=off
 orbloce=off
 orbloco=off
 orblocv=off
 orblocguess=cholesky
 osveps=1e-3
 ovirt=off
 ovltol=1e-7
 ovosnorb=80.0
 pcm=off
 popul=off
 pressure=100000
 pssp=off
 ptfreq=0.0
 ptthreads=24
 qro=off
 qscf=off
 qmmm=off
 redcost_exc=off
 redcost_tddft=off
 refdet=none
 rest=0
 rgrid=log3
 rism=off
 rohfcore=semicanonical
 rohftype=semicanonical
 scfalg=auto
 scf_conv=auto
 scfdamp=0.0d0
 scfdamp_mode=off
 scfdamp_end=50
 scfdamp_dampstep=0.d0
 scfdamp_dtol=0.0d0
 scfdamp_maxfact=0.0d0
 scfdamp_minfact=0.0d0
 scfdiis=on
 scfdiis_dtol=0.0d0
 scfdiis_end=50
 scfdiis_start=2
 scfdiis_step=1
 scfdiis_watch=off
 scfdiis_wrange=10
 scfdiis_wlimit=5
 scfdiis_delmax=2
 scfdtol=11
 scfext=10
 scfguessdens=
 scfiguess=sad
 scfloc=off
 scflshift=0.20
 scflshift_end=8
 scflshift_dtol=0.0
 scflshift_gaptol=0.20
 scfmaxit=50
 scftype=
 scftol=10
 scspe=1.d0
 scsph=1.d0
 scsps=1.2d0
 scsps_t=1.2d0
 scspt=0.33333333333333
 scspt_t=0.33333333333333
 scspv=1.d0
 spairtol=1e-4
 sqmprog=
 subminp=top
 symm=0
 talg=occ
 temp=298.15
 test=off
 theodore=off
 tlmo=0.999
 tpao=0.94
 tprint=off
 uncontract=off
 unit=angs
 usedisk=2
 verbosity=3
 wpairtol=0.100000000E-05

 ************************ 2025-05-05 19:39:48 *************************
 Executing integ...

 Allocation of 322.3 Gbytes of memory...
 
 
 Number of atoms:                  4
 Charge:                           0
 Number of electrons:             18
 Number of core electrons:         4
 Spin multiplicity:                1
 
                 Cartesian coordinates [bohr]      Atomic mass [AMU]  Z
   1  O     0.00000000    0.00000000    0.00000000    15.994915       8
   2  O     2.74010288    0.00000000    0.00000000    15.994915       8
   3  H    -1.13383568    1.45508912    0.00000000     1.007825       1
   4  H     3.87393856    1.45508912    0.00000000     1.007825       1
 
 This molecule is an asymmetric top.
 This molecule is planar.
 
 Rotational constants [cm-1]: 
     14.994669156852      0.828247175865      0.784892754348
 
 Point group: C2v 
 Computational point group: C1  
 
 Cartesian coordinates in standard orientation [bohr]
   1  O     0.00000000   -1.37005144   -0.08624935
   2  O     0.00000000    1.37005144   -0.08624935
   3  H     0.00000000   -2.50388712    1.36883977
   4  H     0.00000000    2.50388712    1.36883977
 
 Nuclear repulsion energy [au]:         36.096455076515
 
 
 Basis set information:
 
 Maximum angular momentum: f
 Maximum number of contracted Gaussians:   11
 Maximum number of primitive Gaussians:    11
 Spherical harmonic GTOs are used.
 
 
 Conventional basis set:
 
   1  O  aug-cc-pvdz [ 10s 5p 2d | 4s 3p 2d ]
   2  O  aug-cc-pvdz [ 10s 5p 2d | 4s 3p 2d ]
   3  H  aug-cc-pvdz [ 5s 2p | 3s 2p ]
   4  H  aug-cc-pvdz [ 5s 2p | 3s 2p ]
 
 Basis functions:
            1             2             3             4             5             6             7             8             9            10
    0    1O1s          1O2s          1O3s          1O4s          1O1pz         1O1py         1O1px         1O2pz         1O2py         1O2px     
    1    1O3pz         1O3py         1O3px         1O1d-2        1O1d-1        1O1d0         1O1d+1        1O1d+2        1O2d-2        1O2d-1    
    2    1O2d0         1O2d+1        1O2d+2        2O1s          2O2s          2O3s          2O4s          2O1pz         2O1py         2O1px     
    3    2O2pz         2O2py         2O2px         2O3pz         2O3py         2O3px         2O1d-2        2O1d-1        2O1d0         2O1d+1    
    4    2O1d+2        2O2d-2        2O2d-1        2O2d0         2O2d+1        2O2d+2        3H1s          3H2s          3H3s          3H1pz     
    5    3H1py         3H1px         3H2pz         3H2py         3H2px         4H1s          4H2s          4H3s          4H1pz         4H1py     
    6    4H1px         4H2pz         4H2py         4H2px     
 
 Maximum number of basis functions per shell:   10
 Total number of basis functions:     64
 
 
 Fitting basis set for the SCF calculation:
 
   1  O  aug-cc-pvdz-ri-jk [ 11s 8p 6d 3f | 11s 8p 6d 3f ]
   2  O  aug-cc-pvdz-ri-jk [ 11s 8p 6d 3f | 11s 8p 6d 3f ]
   3  H  aug-cc-pvdz-ri-jk [ 5s 4p 3d | 5s 4p 3d ]
   4  H  aug-cc-pvdz-ri-jk [ 5s 4p 3d | 5s 4p 3d ]
 
 Basis functions:
            1             2             3             4             5             6             7             8             9            10
    0    1O1s          1O2s          1O3s          1O4s          1O5s          1O6s          1O7s          1O8s          1O9s          1O10s     
    1    1O11s         1O1pz         1O1py         1O1px         1O2pz         1O2py         1O2px         1O3pz         1O3py         1O3px     
    2    1O4pz         1O4py         1O4px         1O5pz         1O5py         1O5px         1O6pz         1O6py         1O6px         1O7pz     
    3    1O7py         1O7px         1O8pz         1O8py         1O8px         1O1d-2        1O1d-1        1O1d0         1O1d+1        1O1d+2    
    4    1O2d-2        1O2d-1        1O2d0         1O2d+1        1O2d+2        1O3d-2        1O3d-1        1O3d0         1O3d+1        1O3d+2    
    5    1O4d-2        1O4d-1        1O4d0         1O4d+1        1O4d+2        1O5d-2        1O5d-1        1O5d0         1O5d+1        1O5d+2    
    6    1O6d-2        1O6d-1        1O6d0         1O6d+1        1O6d+2        1O1f-3        1O1f-2        1O1f-1        1O1f0         1O1f+1    
    7    1O1f+2        1O1f+3        1O2f-3        1O2f-2        1O2f-1        1O2f0         1O2f+1        1O2f+2        1O2f+3        1O3f-3    
    8    1O3f-2        1O3f-1        1O3f0         1O3f+1        1O3f+2        1O3f+3        2O1s          2O2s          2O3s          2O4s      
    9    2O5s          2O6s          2O7s          2O8s          2O9s          2O10s         2O11s         2O1pz         2O1py         2O1px     
   10    2O2pz         2O2py         2O2px         2O3pz         2O3py         2O3px         2O4pz         2O4py         2O4px         2O5pz     
   11    2O5py         2O5px         2O6pz         2O6py         2O6px         2O7pz         2O7py         2O7px         2O8pz         2O8py     
   12    2O8px         2O1d-2        2O1d-1        2O1d0         2O1d+1        2O1d+2        2O2d-2        2O2d-1        2O2d0         2O2d+1    
   13    2O2d+2        2O3d-2        2O3d-1        2O3d0         2O3d+1        2O3d+2        2O4d-2        2O4d-1        2O4d0         2O4d+1    
   14    2O4d+2        2O5d-2        2O5d-1        2O5d0         2O5d+1        2O5d+2        2O6d-2        2O6d-1        2O6d0         2O6d+1    
   15    2O6d+2        2O1f-3        2O1f-2        2O1f-1        2O1f0         2O1f+1        2O1f+2        2O1f+3        2O2f-3        2O2f-2    
   16    2O2f-1        2O2f0         2O2f+1        2O2f+2        2O2f+3        2O3f-3        2O3f-2        2O3f-1        2O3f0         2O3f+1    
   17    2O3f+2        2O3f+3        3H1s          3H2s          3H3s          3H4s          3H5s          3H1pz         3H1py         3H1px     
   18    3H2pz         3H2py         3H2px         3H3pz         3H3py         3H3px         3H4pz         3H4py         3H4px         3H1d-2    
   19    3H1d-1        3H1d0         3H1d+1        3H1d+2        3H2d-2        3H2d-1        3H2d0         3H2d+1        3H2d+2        3H3d-2    
   20    3H3d-1        3H3d0         3H3d+1        3H3d+2        4H1s          4H2s          4H3s          4H4s          4H5s          4H1pz     
   21    4H1py         4H1px         4H2pz         4H2py         4H2px         4H3pz         4H3py         4H3px         4H4pz         4H4py     
   22    4H4px         4H1d-2        4H1d-1        4H1d0         4H1d+1        4H1d+2        4H2d-2        4H2d-1        4H2d0         4H2d+1    
   23    4H2d+2        4H3d-2        4H3d-1        4H3d0         4H3d+1        4H3d+2    
 
 Maximum number of basis functions per shell:   30
 Total number of basis functions:    236
 
 
 Fitting basis set for the correlation calculation:
 
   1  O  aug-cc-pvdz-ri [ 8s 6p 5d 3f | 8s 6p 5d 3f ]
   2  O  aug-cc-pvdz-ri [ 8s 6p 5d 3f | 8s 6p 5d 3f ]
   3  H  aug-cc-pvdz-ri [ 4s 3p 2d | 4s 3p 2d ]
   4  H  aug-cc-pvdz-ri [ 4s 3p 2d | 4s 3p 2d ]
 
 Basis functions:
            1             2             3             4             5             6             7             8             9            10
    0    1O1s          1O2s          1O3s          1O4s          1O5s          1O6s          1O7s          1O8s          1O1pz         1O1py     
    1    1O1px         1O2pz         1O2py         1O2px         1O3pz         1O3py         1O3px         1O4pz         1O4py         1O4px     
    2    1O5pz         1O5py         1O5px         1O6pz         1O6py         1O6px         1O1d-2        1O1d-1        1O1d0         1O1d+1    
    3    1O1d+2        1O2d-2        1O2d-1        1O2d0         1O2d+1        1O2d+2        1O3d-2        1O3d-1        1O3d0         1O3d+1    
    4    1O3d+2        1O4d-2        1O4d-1        1O4d0         1O4d+1        1O4d+2        1O5d-2        1O5d-1        1O5d0         1O5d+1    
    5    1O5d+2        1O1f-3        1O1f-2        1O1f-1        1O1f0         1O1f+1        1O1f+2        1O1f+3        1O2f-3        1O2f-2    
    6    1O2f-1        1O2f0         1O2f+1        1O2f+2        1O2f+3        1O3f-3        1O3f-2        1O3f-1        1O3f0         1O3f+1    
    7    1O3f+2        1O3f+3        2O1s          2O2s          2O3s          2O4s          2O5s          2O6s          2O7s          2O8s      
    8    2O1pz         2O1py         2O1px         2O2pz         2O2py         2O2px         2O3pz         2O3py         2O3px         2O4pz     
    9    2O4py         2O4px         2O5pz         2O5py         2O5px         2O6pz         2O6py         2O6px         2O1d-2        2O1d-1    
   10    2O1d0         2O1d+1        2O1d+2        2O2d-2        2O2d-1        2O2d0         2O2d+1        2O2d+2        2O3d-2        2O3d-1    
   11    2O3d0         2O3d+1        2O3d+2        2O4d-2        2O4d-1        2O4d0         2O4d+1        2O4d+2        2O5d-2        2O5d-1    
   12    2O5d0         2O5d+1        2O5d+2        2O1f-3        2O1f-2        2O1f-1        2O1f0         2O1f+1        2O1f+2        2O1f+3    
   13    2O2f-3        2O2f-2        2O2f-1        2O2f0         2O2f+1        2O2f+2        2O2f+3        2O3f-3        2O3f-2        2O3f-1    
   14    2O3f0         2O3f+1        2O3f+2        2O3f+3        3H1s          3H2s          3H3s          3H4s          3H1pz         3H1py     
   15    3H1px         3H2pz         3H2py         3H2px         3H3pz         3H3py         3H3px         3H1d-2        3H1d-1        3H1d0     
   16    3H1d+1        3H1d+2        3H2d-2        3H2d-1        3H2d0         3H2d+1        3H2d+2        4H1s          4H2s          4H3s      
   17    4H4s          4H1pz         4H1py         4H1px         4H2pz         4H2py         4H2px         4H3pz         4H3py         4H3px     
   18    4H1d-2        4H1d-1        4H1d0         4H1d+1        4H1d+2        4H2d-2        4H2d-1        4H2d0         4H2d+1        4H2d+2    
 
 Maximum number of basis functions per shell:   30
 Total number of basis functions:    190
 
 
 Initializing the SAD routines for the initial guess...
 Checking the files required for the initial guess...
 Density files have not been found for the initial guess.
 Generating SCFDENSITIES.O.aug-cc-pvdz.0
 Generating SCFDENSITIES.H.aug-cc-pvdz.0
 CPU time [min]:     0.078                   Wall time [min]:     0.041
 
 Character table for point group C1:
 
          E  
    A     1
 
 Number of basis functions per irrep:
    A      64
 
 
 Calculation of overlap integrals...
 CPU time [min]:     0.078                   Wall time [min]:     0.042
 
 Calculation of the square root of the overlap matrix...
 Minimum eigenvalue of the overlap matrix: 0.753312E-03
 CPU time [min]:     0.081                   Wall time [min]:     0.042
 
 Calculation of kinetic energy integrals...
 CPU time [min]:     0.082                   Wall time [min]:     0.042
 Calculation of nuclear attraction integrals...
 CPU time [min]:     0.082                   Wall time [min]:     0.042
 
 Calculation of prescreening integrals...
 CPU time [min]:     0.093                   Wall time [min]:     0.042
 
 Calculation of two-center Coulomb integrals...
   2% done.
  13% done.
  26% done.
  41% done.
  53% done.
  64% done.
  75% done.
  88% done.
 100% done.
 CPU time [min]:     0.097                   Wall time [min]:     0.042
 
 Calculation of inverse square root of the two-center integral matrix...
 CPU time [min]:     0.101                   Wall time [min]:     0.043
 
 Calculation of three-center Coulomb integrals...
   4% done.
  18% done.
  32% done.
  52% done.
  74% done.
 100% done.
 CPU time [min]:     0.111                   Wall time [min]:     0.043

 ************************ 2025-05-05 19:39:51 *************************
 Executing scf...

 @scfsetup: integrals taken from disk
            mrcc/integ binary format
 @scfsetup: calculating on full matrices
            not using symmetry adapted basis
 @scfsetup: diis switched on
 @scfsetup: number of steps to extrapolate from  10
 @scfsetup: tolerance in energy deviation    0.100000E-09
            tolerance in density deviation    0.100000E-10
 @scfsetup: maximum number of iterations:  50
 @scfsetup: restricted closed shell hf calc
 @scfsetup: starting scf from superposition of atomic densities
 @scfsetup: occupation set:
            from initial orbitals
 @scfsetup: Parameter-set for SCF acceleration: normal
 @scfsetup: diis runs from iteration:   2
 @scfsetup: diis runs to iteration:  50
 @scfsetup: diis runs in every iteration
 @scfsetup: diiswatch is disabled                   
 @scfsetup: diis dtol criteria to switch on:      0.0000E+00
           (or the iteration number below is reached)
 @scfsetup: static damping scheme
            iteration step criteria to turn damping off: 3
 @scfsetup: dynamic level shifting
            tolarance in HOMO-LUMO gap:  0.200
            tolarance in density deviation:     0.0000E+00
            iteration step criteria to turn level shifting off: 8
 Allocation of 322.3 Gbytes of memory...
 ======================================================================
 ITERATION STEP   1
 CPU time [min]:     0.007                   Wall time [min]:     0.005
 

 SCF control                  : initial
 Damping factor/level shift   : 0.000/0.200
 DIIS [start/end/frequency]   :   2 / 50 /  1

 Constructing Fock-matrix...
 Number of integral batches:    1
 Occupied indices per batch:    9
 CPU time [min]:     0.015                   Wall time [min]:     0.005
 
 Gradient norm:      3.1504E+00
 RMS of [F,P]:                                         0.05305124620006
 RMS of difference density:                            0.03807504815290
 Gap [au]:  0.58165498
 ALPHA OCC:   9
 BETA  OCC:   9
 
 ***HARTREE-FOCK ENERGY IN STEP   1 IS       -150.3034692190383055 [AU]
 ======================================================================
 ITERATION STEP   2
 CPU time [min]:     0.017                   Wall time [min]:     0.006
 

 SCF control                  : diis
 Damping factor/level shift   : 0.000/0.000
 DIIS [start/end/frequency]   :   2 / 50 /  1

 Constructing Fock-matrix...
 Number of integral batches:    1
 Occupied indices per batch:    9
 CPU time [min]:     0.025                   Wall time [min]:     0.006
 
 Gradient norm:      1.5998E-01
 DIIS is running in this iteration step.
 RMS of [F,P]:                                         0.00727370423903
 RMS of difference density:                            0.01047664039730
 Gap [au]:  0.44516227
 ALPHA OCC:   9
 BETA  OCC:   9
 
 ***HARTREE-FOCK ENERGY IN STEP   2 IS       -150.7254441123546371 [AU]
 
 Step comparison  Energy Drift [au]  DIIS error drift  Gradient drift
        1            4.2197E-01         4.5778E-02       2.9904E+00
        2            1.5073E+02         1.0000E-11       2.9904E+00
 ======================================================================
 ITERATION STEP   3
 CPU time [min]:     0.027                   Wall time [min]:     0.006
 

 SCF control                  : diis
 Damping factor/level shift   : 0.000/0.000
 DIIS [start/end/frequency]   :   2 / 50 /  1

 Constructing Fock-matrix...
 Number of integral batches:    1
 Occupied indices per batch:    9
 CPU time [min]:     0.035                   Wall time [min]:     0.006
 
 Gradient norm:      8.5145E-02
 DIIS is running in this iteration step.
 RMS of [F,P]:                                         0.00342804910320
 RMS of difference density:                            0.00346159664855
 Gap [au]:  0.49755884
 ALPHA OCC:   9
 BETA  OCC:   9
 
 ***HARTREE-FOCK ENERGY IN STEP   3 IS       -150.7494923414517700 [AU]
 
 Step comparison  Energy Drift [au]  DIIS error drift  Gradient drift
        2            2.4048E-02         3.8457E-03       7.4839E-02
 ======================================================================
 ITERATION STEP   4
 CPU time [min]:     0.038                   Wall time [min]:     0.006
 

 SCF control                  : diis
 Damping factor/level shift   : 0.000/0.000
 DIIS [start/end/frequency]   :   2 / 50 /  1

 Constructing Fock-matrix...
 Number of integral batches:    1
 Occupied indices per batch:    9
 CPU time [min]:     0.045                   Wall time [min]:     0.007
 
 Gradient norm:      3.6324E-02
 DIIS is running in this iteration step.
 RMS of [F,P]:                                         0.00092680684839
 RMS of difference density:                            0.00184922129304
 Gap [au]:  0.49045866
 ALPHA OCC:   9
 BETA  OCC:   9
 
 ***HARTREE-FOCK ENERGY IN STEP   4 IS       -150.7548413549598365 [AU]
 
 Step comparison  Energy Drift [au]  DIIS error drift  Gradient drift
        3            5.3490E-03         2.5012E-03       4.8821E-02
 ======================================================================
 ITERATION STEP   5
 CPU time [min]:     0.048                   Wall time [min]:     0.007
 

 SCF control                  : diis
 Damping factor/level shift   : 0.000/0.000
 DIIS [start/end/frequency]   :   2 / 50 /  1

 Constructing Fock-matrix...
 Number of integral batches:    1
 Occupied indices per batch:    9
 CPU time [min]:     0.056                   Wall time [min]:     0.007
 
 Gradient norm:      1.8711E-02
 DIIS is running in this iteration step.
 RMS of [F,P]:                                         0.00035524143768
 RMS of difference density:                            0.00093991852924
 Gap [au]:  0.49228025
 ALPHA OCC:   9
 BETA  OCC:   9
 
 ***HARTREE-FOCK ENERGY IN STEP   5 IS       -150.7560699913122733 [AU]
 
 Step comparison  Energy Drift [au]  DIIS error drift  Gradient drift
        4            1.2286E-03         5.7157E-04       1.7613E-02
 ======================================================================
 ITERATION STEP   6
 CPU time [min]:     0.059                   Wall time [min]:     0.007
 

 SCF control                  : diis
 Damping factor/level shift   : 0.000/0.000
 DIIS [start/end/frequency]   :   2 / 50 /  1

 Constructing Fock-matrix...
 Number of integral batches:    1
 Occupied indices per batch:    9
 CPU time [min]:     0.066                   Wall time [min]:     0.008
 
 Gradient norm:      6.3948E-03
 DIIS is running in this iteration step.
 RMS of [F,P]:                                         0.00013213869810
 RMS of difference density:                            0.00046828196959
 Gap [au]:  0.49272716
 ALPHA OCC:   9
 BETA  OCC:   9
 
 ***HARTREE-FOCK ENERGY IN STEP   6 IS       -150.7563339637339368 [AU]
 
 Step comparison  Energy Drift [au]  DIIS error drift  Gradient drift
        5            2.6397E-04         2.2310E-04       1.2316E-02
 ======================================================================
 ITERATION STEP   7
 CPU time [min]:     0.069                   Wall time [min]:     0.008
 

 SCF control                  : diis
 Damping factor/level shift   : 0.000/0.000
 DIIS [start/end/frequency]   :   2 / 50 /  1

 Constructing Fock-matrix...
 Number of integral batches:    1
 Occupied indices per batch:    9
 CPU time [min]:     0.077                   Wall time [min]:     0.008
 
 Gradient norm:      9.6727E-04
 DIIS is running in this iteration step.
 RMS of [F,P]:                                         0.00002404751328
 RMS of difference density:                            0.00008818052033
 Gap [au]:  0.49273449
 ALPHA OCC:   9
 BETA  OCC:   9
 
 ***HARTREE-FOCK ENERGY IN STEP   7 IS       -150.7563760786483158 [AU]
 
 Step comparison  Energy Drift [au]  DIIS error drift  Gradient drift
        6            4.2115E-05         1.0809E-04       5.4275E-03
 ======================================================================
 ITERATION STEP   8
 CPU time [min]:     0.079                   Wall time [min]:     0.008
 

 SCF control                  : diis
 Damping factor/level shift   : 0.000/0.000
 DIIS [start/end/frequency]   :   2 / 50 /  1

 Constructing Fock-matrix...
 Number of integral batches:    1
 Occupied indices per batch:    9
 CPU time [min]:     0.087                   Wall time [min]:     0.009
 
 Gradient norm:      6.9553E-05
 DIIS is running in this iteration step.
 RMS of [F,P]:                                         0.00000207780367
 RMS of difference density:                            0.00000457588735
 Gap [au]:  0.49273841
 ALPHA OCC:   9
 BETA  OCC:   9
 
 ***HARTREE-FOCK ENERGY IN STEP   8 IS       -150.7563773398117348 [AU]
 
 Step comparison  Energy Drift [au]  DIIS error drift  Gradient drift
        7            1.2612E-06         2.1970E-05       8.9771E-04
 ======================================================================
 ITERATION STEP   9
 CPU time [min]:     0.090                   Wall time [min]:     0.009
 

 SCF control                  : diis
 Damping factor/level shift   : 0.000/0.000
 DIIS [start/end/frequency]   :   2 / 50 /  1

 Constructing Fock-matrix...
 Number of integral batches:    1
 Occupied indices per batch:    9
 CPU time [min]:     0.097                   Wall time [min]:     0.009
 
 Gradient norm:      8.8084E-06
 DIIS is running in this iteration step.
 RMS of [F,P]:                                         0.00000030815210
 RMS of difference density:                            0.00000061900158
 Gap [au]:  0.49273943
 ALPHA OCC:   9
 BETA  OCC:   9
 
 ***HARTREE-FOCK ENERGY IN STEP   9 IS       -150.7563773449361975 [AU]
 
 Step comparison  Energy Drift [au]  DIIS error drift  Gradient drift
        8            5.1245E-09         1.7697E-06       6.0745E-05
 ======================================================================
 ITERATION STEP  10
 CPU time [min]:     0.100                   Wall time [min]:     0.009
 

 SCF control                  : diis
 Damping factor/level shift   : 0.000/0.000
 DIIS [start/end/frequency]   :   2 / 50 /  1

 Constructing Fock-matrix...
 Number of integral batches:    1
 Occupied indices per batch:    9
 CPU time [min]:     0.108                   Wall time [min]:     0.009
 
 Gradient norm:      1.3443E-06
 DIIS is running in this iteration step.
 RMS of [F,P]:                                         0.00000004669631
 RMS of difference density:                            0.00000011796803
 Gap [au]:  0.49274006
 ALPHA OCC:   9
 BETA  OCC:   9
 
 ***HARTREE-FOCK ENERGY IN STEP  10 IS       -150.7563773450537497 [AU]
 
 Step comparison  Energy Drift [au]  DIIS error drift  Gradient drift
        9            1.1755E-10         2.6146E-07       7.4640E-06
 ======================================================================
 ITERATION STEP  11
 CPU time [min]:     0.111                   Wall time [min]:     0.010
 

 SCF control                  : diis
 Damping factor/level shift   : 0.000/0.000
 DIIS [start/end/frequency]   :   2 / 50 /  1

 Constructing Fock-matrix...
 Number of integral batches:    1
 Occupied indices per batch:    9
 CPU time [min]:     0.118                   Wall time [min]:     0.010
 
 Gradient norm:      2.1862E-07
 DIIS is running in this iteration step.
 RMS of [F,P]:                                         0.00000000845829
 RMS of difference density:                            0.00000001734337
 Gap [au]:  0.49274010
 ALPHA OCC:   9
 BETA  OCC:   9
 
 ***HARTREE-FOCK ENERGY IN STEP  11 IS       -150.7563773450567624 [AU]
 
 Step comparison  Energy Drift [au]  DIIS error drift  Gradient drift
       10            3.0127E-12         3.8238E-08       1.1257E-06
 ======================================================================
 ITERATION STEP  12
 CPU time [min]:     0.121                   Wall time [min]:     0.010
 

 SCF control                  : diis
 Damping factor/level shift   : 0.000/0.000
 DIIS [start/end/frequency]   :   2 / 50 /  1

 Constructing Fock-matrix...
 Number of integral batches:    1
 Occupied indices per batch:    9
 CPU time [min]:     0.129                   Wall time [min]:     0.010
 
 Gradient norm:      3.5055E-08
 DIIS is running in this iteration step.
 RMS of [F,P]:                                         0.00000000141772
 RMS of difference density:                            0.00000000348115
 Gap [au]:  0.49274012
 ALPHA OCC:   9
 BETA  OCC:   9
 
 ***HARTREE-FOCK ENERGY IN STEP  12 IS       -150.7563773450567624 [AU]
 
 Step comparison  Energy Drift [au]  DIIS error drift  Gradient drift
       11            0.0000E+00         7.0406E-09       1.8356E-07
 Warning! The energy goes uphill (with respect to previous step).
 ======================================================================
 ITERATION STEP  13
 CPU time [min]:     0.131                   Wall time [min]:     0.010
 

 SCF control                  : diis
 Damping factor/level shift   : 0.000/0.000
 DIIS [start/end/frequency]   :   2 / 50 /  1

 Constructing Fock-matrix...
 Number of integral batches:    1
 Occupied indices per batch:    9
 CPU time [min]:     0.139                   Wall time [min]:     0.011
 
 Gradient norm:      8.2761E-09
 DIIS is running in this iteration step.
 RMS of [F,P]:                                         0.00000000030283
 RMS of difference density:                            0.00000000065963
 Gap [au]:  0.49274012
 ALPHA OCC:   9
 BETA  OCC:   9
 
 ***HARTREE-FOCK ENERGY IN STEP  13 IS       -150.7563773450567339 [AU]
 
 Step comparison  Energy Drift [au]  DIIS error drift  Gradient drift
       12           -2.8422E-14         1.1149E-09       2.6779E-08
 Warning! The energy goes uphill (with respect to previous step).
 ======================================================================
 ITERATION STEP  14
 CPU time [min]:     0.141                   Wall time [min]:     0.011
 

 SCF control                  : diis
 Damping factor/level shift   : 0.000/0.000
 DIIS [start/end/frequency]   :   2 / 50 /  1

 Constructing Fock-matrix...
 Number of integral batches:    1
 Occupied indices per batch:    9
 CPU time [min]:     0.149                   Wall time [min]:     0.011
 
 Gradient norm:      1.4749E-09
 DIIS is running in this iteration step.
 RMS of [F,P]:                                         0.00000000004477
 RMS of difference density:                            0.00000000009533
 Gap [au]:  0.49274012
 ALPHA OCC:   9
 BETA  OCC:   9
 
 ***HARTREE-FOCK ENERGY IN STEP  14 IS       -150.7563773450567624 [AU]
 
 Step comparison  Energy Drift [au]  DIIS error drift  Gradient drift
       13            2.8422E-14         2.5806E-10       6.8012E-09
 ======================================================================
 ITERATION STEP  15
 CPU time [min]:     0.152                   Wall time [min]:     0.011
 

 SCF control                  : diis
 Damping factor/level shift   : 0.000/0.000
 DIIS [start/end/frequency]   :   2 / 50 /  1

 Constructing Fock-matrix...
 Number of integral batches:    1
 Occupied indices per batch:    9
 CPU time [min]:     0.159                   Wall time [min]:     0.012
 
 Gradient norm:      2.9669E-10
 DIIS is running in this iteration step.
 RMS of [F,P]:                                         0.00000000001079
 RMS of difference density:                            0.00000000001935
 Gap [au]:  0.49274012
 ALPHA OCC:   9
 BETA  OCC:   9
 
 ***HARTREE-FOCK ENERGY IN STEP  15 IS       -150.7563773450567908 [AU]
 
 Step comparison  Energy Drift [au]  DIIS error drift  Gradient drift
       14            2.8422E-14         3.3979E-11       1.1782E-09
 ======================================================================
 ITERATION STEP  16
 CPU time [min]:     0.162                   Wall time [min]:     0.012
 

 SCF control                  : diis
 Damping factor/level shift   : 0.000/0.000
 DIIS [start/end/frequency]   :   2 / 50 /  1

 Constructing Fock-matrix...
 Number of integral batches:    1
 Occupied indices per batch:    9
 CPU time [min]:     0.169                   Wall time [min]:     0.012
 
 Gradient norm:      3.3804E-11
 DIIS is running in this iteration step.
 RMS of [F,P]:                                         0.00000000000115
 RMS of difference density:                            0.00000000000286
 Gap [au]:  0.49274012
 ALPHA OCC:   9
 BETA  OCC:   9
 
 ***HARTREE-FOCK ENERGY IN STEP  16 IS       -150.7563773450568760 [AU]
 
 Step comparison  Energy Drift [au]  DIIS error drift  Gradient drift
       15            8.5265E-14         9.6455E-12       2.6289E-10
 ======================================================================
 
 SUCCESS...
 THE SCF ITERATION HAS CONVERGED!
 
                   A   
 FINAL ALPHA OCC:   9
 FINAL BETA  OCC:   9
 
 ***FINAL HARTREE-FOCK ENERGY:       -150.7563773450568760 [AU]
 
 Orbital energies [au]:
      Irrep         Alpha          Beta
    1   A        -20.638836     -20.638836
    2   A        -20.638572     -20.638572
    3   A         -1.455536      -1.455536
    4   A         -1.226981      -1.226981
    5   A         -0.782431      -0.782431
    6   A         -0.621308      -0.621308
    7   A         -0.583630      -0.583630
    8   A         -0.548027      -0.548027
    9   A         -0.458131      -0.458131
 
   10   A          0.034609       0.034609
   11   A          0.043442       0.043442
   12   A          0.142216       0.142216
   13   A          0.178745       0.178745
   14   A          0.199821       0.199821
   15   A          0.206964       0.206964
   16   A          0.208996       0.208996
   17   A          0.239019       0.239019
   18   A          0.262210       0.262210
   19   A          0.286521       0.286521
   20   A          0.324489       0.324489
   21   A          0.366823       0.366823
   22   A          0.386789       0.386789
   23   A          0.423646       0.423646
   24   A          0.427793       0.427793
   25   A          0.465907       0.465907
   26   A          0.570502       0.570502
   27   A          0.627436       0.627436
   28   A          0.662861       0.662861
   29   A          0.810435       0.810435
   30   A          0.953632       0.953632
   31   A          0.994962       0.994962
   32   A          1.003677       1.003677
   33   A          1.078765       1.078765
   34   A          1.102312       1.102312
   35   A          1.214455       1.214455
   36   A          1.222819       1.222819
   37   A          1.302708       1.302708
   38   A          1.339975       1.339975
   39   A          1.370252       1.370252
   40   A          1.384856       1.384856
   41   A          1.546534       1.546534
   42   A          1.610208       1.610208
   43   A          1.707069       1.707069
   44   A          1.801366       1.801366
   45   A          1.942059       1.942059
   46   A          2.000425       2.000425
   47   A          2.211331       2.211331
   48   A          2.346997       2.346997
   49   A          2.384036       2.384036
   50   A          2.510174       2.510174
   51   A          2.566585       2.566585
   52   A          2.815702       2.815702
   53   A          3.003619       3.003619
   54   A          3.336463       3.336463
   55   A          3.470192       3.470192
   56   A          3.497762       3.497762
   57   A          3.606667       3.606667
   58   A          3.634232       3.634232
   59   A          3.680829       3.680829
   60   A          3.684305       3.684305
   61   A          3.799281       3.799281
   62   A          3.992422       3.992422
   63   A          4.173911       4.173911
   64   A          4.395705       4.395705
 
 RETURNING FROM SCF ALGORITHM
 ======================================================================

 ************************ 2025-05-05 19:39:52 *************************
 Executing integ...

 Allocation of 322.3 Gbytes of memory...
 
 
 Basis set information:
 
 Maximum angular momentum: f
 Maximum number of contracted Gaussians:   11
 Maximum number of primitive Gaussians:    11
 Spherical harmonic GTOs are used.
 
 
 Conventional basis set:
 
   1  O  aug-cc-pvdz [ 10s 5p 2d | 4s 3p 2d ]
   2  O  aug-cc-pvdz [ 10s 5p 2d | 4s 3p 2d ]
   3  H  aug-cc-pvdz [ 5s 2p | 3s 2p ]
   4  H  aug-cc-pvdz [ 5s 2p | 3s 2p ]
 
 Basis functions:
            1             2             3             4             5             6             7             8             9            10
    0    1O1s          1O2s          1O3s          1O4s          1O1pz         1O1py         1O1px         1O2pz         1O2py         1O2px     
    1    1O3pz         1O3py         1O3px         1O1d-2        1O1d-1        1O1d0         1O1d+1        1O1d+2        1O2d-2        1O2d-1    
    2    1O2d0         1O2d+1        1O2d+2        2O1s          2O2s          2O3s          2O4s          2O1pz         2O1py         2O1px     
    3    2O2pz         2O2py         2O2px         2O3pz         2O3py         2O3px         2O1d-2        2O1d-1        2O1d0         2O1d+1    
    4    2O1d+2        2O2d-2        2O2d-1        2O2d0         2O2d+1        2O2d+2        3H1s          3H2s          3H3s          3H1pz     
    5    3H1py         3H1px         3H2pz         3H2py         3H2px         4H1s          4H2s          4H3s          4H1pz         4H1py     
    6    4H1px         4H2pz         4H2py         4H2px     
 
 Maximum number of basis functions per shell:   10
 Total number of basis functions:     64
 
 
 Fitting basis set for the SCF calculation:
 
   1  O  aug-cc-pvdz-ri-jk [ 11s 8p 6d 3f | 11s 8p 6d 3f ]
   2  O  aug-cc-pvdz-ri-jk [ 11s 8p 6d 3f | 11s 8p 6d 3f ]
   3  H  aug-cc-pvdz-ri-jk [ 5s 4p 3d | 5s 4p 3d ]
   4  H  aug-cc-pvdz-ri-jk [ 5s 4p 3d | 5s 4p 3d ]
 
 Basis functions:
            1             2             3             4             5             6             7             8             9            10
    0    1O1s          1O2s          1O3s          1O4s          1O5s          1O6s          1O7s          1O8s          1O9s          1O10s     
    1    1O11s         1O1pz         1O1py         1O1px         1O2pz         1O2py         1O2px         1O3pz         1O3py         1O3px     
    2    1O4pz         1O4py         1O4px         1O5pz         1O5py         1O5px         1O6pz         1O6py         1O6px         1O7pz     
    3    1O7py         1O7px         1O8pz         1O8py         1O8px         1O1d-2        1O1d-1        1O1d0         1O1d+1        1O1d+2    
    4    1O2d-2        1O2d-1        1O2d0         1O2d+1        1O2d+2        1O3d-2        1O3d-1        1O3d0         1O3d+1        1O3d+2    
    5    1O4d-2        1O4d-1        1O4d0         1O4d+1        1O4d+2        1O5d-2        1O5d-1        1O5d0         1O5d+1        1O5d+2    
    6    1O6d-2        1O6d-1        1O6d0         1O6d+1        1O6d+2        1O1f-3        1O1f-2        1O1f-1        1O1f0         1O1f+1    
    7    1O1f+2        1O1f+3        1O2f-3        1O2f-2        1O2f-1        1O2f0         1O2f+1        1O2f+2        1O2f+3        1O3f-3    
    8    1O3f-2        1O3f-1        1O3f0         1O3f+1        1O3f+2        1O3f+3        2O1s          2O2s          2O3s          2O4s      
    9    2O5s          2O6s          2O7s          2O8s          2O9s          2O10s         2O11s         2O1pz         2O1py         2O1px     
   10    2O2pz         2O2py         2O2px         2O3pz         2O3py         2O3px         2O4pz         2O4py         2O4px         2O5pz     
   11    2O5py         2O5px         2O6pz         2O6py         2O6px         2O7pz         2O7py         2O7px         2O8pz         2O8py     
   12    2O8px         2O1d-2        2O1d-1        2O1d0         2O1d+1        2O1d+2        2O2d-2        2O2d-1        2O2d0         2O2d+1    
   13    2O2d+2        2O3d-2        2O3d-1        2O3d0         2O3d+1        2O3d+2        2O4d-2        2O4d-1        2O4d0         2O4d+1    
   14    2O4d+2        2O5d-2        2O5d-1        2O5d0         2O5d+1        2O5d+2        2O6d-2        2O6d-1        2O6d0         2O6d+1    
   15    2O6d+2        2O1f-3        2O1f-2        2O1f-1        2O1f0         2O1f+1        2O1f+2        2O1f+3        2O2f-3        2O2f-2    
   16    2O2f-1        2O2f0         2O2f+1        2O2f+2        2O2f+3        2O3f-3        2O3f-2        2O3f-1        2O3f0         2O3f+1    
   17    2O3f+2        2O3f+3        3H1s          3H2s          3H3s          3H4s          3H5s          3H1pz         3H1py         3H1px     
   18    3H2pz         3H2py         3H2px         3H3pz         3H3py         3H3px         3H4pz         3H4py         3H4px         3H1d-2    
   19    3H1d-1        3H1d0         3H1d+1        3H1d+2        3H2d-2        3H2d-1        3H2d0         3H2d+1        3H2d+2        3H3d-2    
   20    3H3d-1        3H3d0         3H3d+1        3H3d+2        4H1s          4H2s          4H3s          4H4s          4H5s          4H1pz     
   21    4H1py         4H1px         4H2pz         4H2py         4H2px         4H3pz         4H3py         4H3px         4H4pz         4H4py     
   22    4H4px         4H1d-2        4H1d-1        4H1d0         4H1d+1        4H1d+2        4H2d-2        4H2d-1        4H2d0         4H2d+1    
   23    4H2d+2        4H3d-2        4H3d-1        4H3d0         4H3d+1        4H3d+2    
 
 Maximum number of basis functions per shell:   30
 Total number of basis functions:    236
 
 
 Fitting basis set for the correlation calculation:
 
   1  O  aug-cc-pvdz-ri [ 8s 6p 5d 3f | 8s 6p 5d 3f ]
   2  O  aug-cc-pvdz-ri [ 8s 6p 5d 3f | 8s 6p 5d 3f ]
   3  H  aug-cc-pvdz-ri [ 4s 3p 2d | 4s 3p 2d ]
   4  H  aug-cc-pvdz-ri [ 4s 3p 2d | 4s 3p 2d ]
 
 Basis functions:
            1             2             3             4             5             6             7             8             9            10
    0    1O1s          1O2s          1O3s          1O4s          1O5s          1O6s          1O7s          1O8s          1O1pz         1O1py     
    1    1O1px         1O2pz         1O2py         1O2px         1O3pz         1O3py         1O3px         1O4pz         1O4py         1O4px     
    2    1O5pz         1O5py         1O5px         1O6pz         1O6py         1O6px         1O1d-2        1O1d-1        1O1d0         1O1d+1    
    3    1O1d+2        1O2d-2        1O2d-1        1O2d0         1O2d+1        1O2d+2        1O3d-2        1O3d-1        1O3d0         1O3d+1    
    4    1O3d+2        1O4d-2        1O4d-1        1O4d0         1O4d+1        1O4d+2        1O5d-2        1O5d-1        1O5d0         1O5d+1    
    5    1O5d+2        1O1f-3        1O1f-2        1O1f-1        1O1f0         1O1f+1        1O1f+2        1O1f+3        1O2f-3        1O2f-2    
    6    1O2f-1        1O2f0         1O2f+1        1O2f+2        1O2f+3        1O3f-3        1O3f-2        1O3f-1        1O3f0         1O3f+1    
    7    1O3f+2        1O3f+3        2O1s          2O2s          2O3s          2O4s          2O5s          2O6s          2O7s          2O8s      
    8    2O1pz         2O1py         2O1px         2O2pz         2O2py         2O2px         2O3pz         2O3py         2O3px         2O4pz     
    9    2O4py         2O4px         2O5pz         2O5py         2O5px         2O6pz         2O6py         2O6px         2O1d-2        2O1d-1    
   10    2O1d0         2O1d+1        2O1d+2        2O2d-2        2O2d-1        2O2d0         2O2d+1        2O2d+2        2O3d-2        2O3d-1    
   11    2O3d0         2O3d+1        2O3d+2        2O4d-2        2O4d-1        2O4d0         2O4d+1        2O4d+2        2O5d-2        2O5d-1    
   12    2O5d0         2O5d+1        2O5d+2        2O1f-3        2O1f-2        2O1f-1        2O1f0         2O1f+1        2O1f+2        2O1f+3    
   13    2O2f-3        2O2f-2        2O2f-1        2O2f0         2O2f+1        2O2f+2        2O2f+3        2O3f-3        2O3f-2        2O3f-1    
   14    2O3f0         2O3f+1        2O3f+2        2O3f+3        3H1s          3H2s          3H3s          3H4s          3H1pz         3H1py     
   15    3H1px         3H2pz         3H2py         3H2px         3H3pz         3H3py         3H3px         3H1d-2        3H1d-1        3H1d0     
   16    3H1d+1        3H1d+2        3H2d-2        3H2d-1        3H2d0         3H2d+1        3H2d+2        4H1s          4H2s          4H3s      
   17    4H4s          4H1pz         4H1py         4H1px         4H2pz         4H2py         4H2px         4H3pz         4H3py         4H3px     
   18    4H1d-2        4H1d-1        4H1d0         4H1d+1        4H1d+2        4H2d-2        4H2d-1        4H2d0         4H2d+1        4H2d+2    
 
 Maximum number of basis functions per shell:   30
 Total number of basis functions:    190
 
 
 Calculation of prescreening integrals...
 CPU time [min]:     0.010                   Wall time [min]:     0.003
 
 Calculation of two-center Coulomb integrals...
   2% done.
  14% done.
  27% done.
  42% done.
  58% done.
  77% done.
  90% done.
 100% done.
 CPU time [min]:     0.013                   Wall time [min]:     0.003
 
 Calculation of inverse square root of the two-center integral matrix...
 CPU time [min]:     0.017                   Wall time [min]:     0.004
 
 Calculation of three-center Coulomb integrals...
   4% done.
  18% done.
  32% done.
  52% done.
  74% done.
 100% done.
 CPU time [min]:     0.025                   Wall time [min]:     0.004

 ************************ 2025-05-05 19:39:52 *************************
 Executing drpa...

 Three-index integral transformation
 
 Allocation of 322.3 Gbytes of memory...
 Minimal memory requirement for (ai|P) and (ij|P) integrals:        0.4 MB

 Calculating (ai|P) and (ij|P) integrals...
 Number of integral batches:    1
 Occupied indices per batch:    7
 
 Transforming integrals of batch 1...
 IRAN                    28                     1                     0
 ROUTE    
IRAN IO: PH Dimensions: aux./occ./virt.:   190     7    55
IRAN IO: HH Dimensions: aux./occ.:   190     7
 CPU time [min]:     0.009                   Wall time [min]:     0.002

 Calculating (ab|P) integrals...
 Minimal memory requirement for (ab|P) integrals:        0.3 MB
 Number of integral batches:    1
 Virtual indices per batch:    55

 Transforming integrals of batch 1...
IRAN IO: PP Dimensions: aug./virt.:    190    55
                     1                  1540                     0
                    55
 CPU time [min]:     0.022                   Wall time [min]:     0.003

 ************************ 2025-05-05 19:39:53 *************************
 Executing ccsd...

 Allocation of 322.3 Gbytes of memory...

 Direct DF-CCSD calculation
 
 Convergence criterion:  1.0E-10
 
 Number of occupied/virtual/auxiliary orbitals:     7    55   190
     23.65 MB is the minimal memory requirement for CCSD
 
 Reference energy [au]:            -150.756377345057
 T1 contribution [au]:                0.000000000000
 Same spin MP2 energy [au]:          -0.107855048735
 Opposite spin MP2 energy [au]:      -0.308599964039
 MP2 correlation energy [au]:        -0.416455012774
 Total MP2 energy [au]:            -151.172832357831
 
 
 CPU time [min]:     0.006                   Wall time [min]:     0.002
 
 Starting CCSD iterations...
 
                     Residual norm          Energy
 Iteration  1        0.182950184138     -151.171243009131
 Iteration  2        0.054285602308     -151.182652000249
 Iteration  3        0.021938609413     -151.185948237040
 Iteration  4        0.006069470717     -151.185644878333
 Iteration  5        0.002889924513     -151.185679873803
 Iteration  6        0.001255614688     -151.185727778692
 Iteration  7        0.000536687393     -151.185707349148
 Iteration  8        0.000183588026     -151.185706735918
 Iteration  9        0.000062992945     -151.185708020102
 Iteration 10        0.000024384378     -151.185707730686
 Iteration 11        0.000010204457     -151.185707835981
 Iteration 12        0.000004357792     -151.185707944049
 Iteration 13        0.000001364468     -151.185707914129
 Iteration 14        0.000000450110     -151.185707899774
 Iteration 15        0.000000135826     -151.185707902558
 Iteration 16        0.000000042870     -151.185707903843
 Iteration 17        0.000000012965     -151.185707903423
 Iteration 18        0.000000003950     -151.185707903273
 Iteration 19        0.000000001246     -151.185707903328
 Iteration 20        0.000000000435     -151.185707903325
 
 CCSD iteration has converged in 20 steps.
       44.55 MB memory was utilized by CCSD
 
 T1 diagnostic:      1.541E-02            D1 diagnostic:      3.053E-02
 
 T1 contribution [au]:                                  0.000000000000
 Opposite spin CCSD energy [au]:                       -0.335892065424
 Same spin CCSD energy [au]:                           -0.093438492844
 CCSD correlation energy [au]:                         -0.429330558268
 Total CCSD energy [au]:                             -151.185707903325
 
 CPU time [min]:     0.460                   Wall time [min]:     0.021
 
 ************************ 2025-05-05 19:39:54 *************************
                      Normal termination of mrcc.
 **********************************************************************
