 --invoking executable--
/home/irmler/Programs/cfour_hacked/bin//xjoda


   *************************************************************************
         <<<     CCCCCC     CCCCCC   |||     CCCCCC     CCCCCC   >>>
       <<<      CCC        CCC       |||    CCC        CCC         >>>
      <<<      CCC        CCC        |||   CCC        CCC            >>>
    <<<        CCC        CCC        |||   CCC        CCC              >>>
      <<<      CCC        CCC        |||   CCC        CCC            >>>
       <<<      CCC        CCC       |||    CCC        CCC         >>>
         <<<     CCCCCC     CCCCCC   |||     CCCCCC     CCCCCC   >>>
   *************************************************************************

     ****************************************************************
     * CFOUR Coupled-Cluster techniques for Computational Chemistry *
     ****************************************************************


   Department of Chemistry                Institut fuer Physikalische Chemie
   University of Florida                  Universitaet Mainz
   Gainesville, FL 32611, USA             D-55099 Mainz, Germany

   Department of Chemistry                Fakultaet fuer Chemie und Biowiss.
   Johns Hopkins University               Karlsruher Institut fuer Technologie
   Baltimore, MD 21218, USA               D-76131 Karlsruhe, Germany

   Department of Chemistry                Department of Physical Chemistry
   Southern Methodist University          Eotvos Lorand University
   Dallas, TX 75275, USA                  H-1053 Budapest, Hungary


                       Version 2.1

                     cqc05                                             
                     Di 22 Jul 2025 22:42:19 CEST                      
                     integer*8 version is running

********************************************************************************
*                          Input from ZMAT file                                *
********************************************************************************
Unrelaxed first-order property calculation at CCSD level                        
N                                                                               
N 1 R1                                                                          
                                                                                
R1=1.09809                                                                      
                                                                                
*CFOUR(BASIS=cc-pVDZ                                                            
CALC=CCSDT-3                                                                    
FROZEN_CORE=ON                                                                  
CONVERGENCE=9                                                                   
SCF_CONV=10                                                                     
CC_CONV=10                                                                      
LINEQ_CONV=10                                                                   
CC_PROG=NCC)                                                                    
********************************************************************************
    -------------------------------------------------------------------
                    CFOUR Control Parameters 
    -------------------------------------------------------------------
        External           Internal           Value            Units
          Name               Name
    -------------------------------------------------------------------
       ABCDTYPE             IABCDT         STANDARD    [  0]    ***   
       ANHARMONIC           IANHAR         OFF         [  0]    ***   
       ANH_ALGORIT          IANALG         STANDARD    [  0]    ***   
       ANH_DERIVAT          IANDER         SECOND      [  1]    ***   
       ANH_MODE             ANHMOD         VIBRATION   [  0]    ***   
       ANH_STEPSIZ          ICUBST             50000          x 10-6  
       ANH_SYMMETR          IANHSM         ABELIAN     [  0]    ***   
       AO_LADDERS           IAOLAD         SINGLEPASS  [  1]    ***   
       AV_SCF               IAVSCF         OFF         [  0]    ***   
       BASIS                IBASIS         PVDZ        [ 13]    ***   
       BOTHVECTORS          BOTHVC         OFF         [  0]    ***   
       BOX_POTENT           IPIAB          OFF         [  0]    ***   
       BREIT                IBREIT         OFF         [  0]    ***   
       BRUCK_CONV           IBRTOL          10D-  4             ***   
       BRUECKNER            IBRKNR         OFF         [  0]    ***   
       BUFFERSIZE           IBUFFS              4096            ***   
       CACHE_RECS           ICHREC             10               ***   
       CALCLEVEL            ICLLVL         CCSDT-3     [ 16]    ***   
       CCORBOPT             ICCORB         OFF         [  0]  x 0.01  
       CC_CONV              ICCCNV          10D- 10             ***   
       CC_EXPORDER          ICCEOR              5               ***   
       CC_EXTRAPOL          ICCEXT         DIIS        [  1]    ***   
       CC_GUESS             ICCGES         MP2         [  0]    ***   
       CC_MAXCYC            ICCCYC            100              cycles 
       CC_PROGRAM           ICCPRO         NCC         [  5]    ***   
       CHARGE               ICHRGE              0               ***   
       CHOLESKY             ICHOLE         OFF         [  0]    ***   
       CIS_CONV             ICISTL              5               ***   
       COMM_SIZE            IPSIZE            ***               ***   
       CONSTANT             ICONST         OLD         [  1]    ***   
       CONTINUUM            ICONTU         NONE        [  0]    ***   
       CONTRACTION          ICNTYP         GENERAL     [  1]    ***   
       COORDINATES          ICOORD         INTERNAL    [  0]    ***   
       CPHF_CONVER          ICPHFT          10D- 16             ***   
       CPHF_MAXCYC          ICPHFC             64              cycles 
       CUBIC                ICUBIC         OFF         [  0]    ***   
       CURVILINEAR          ICURVY         OFF         [  0]    ***   
       DBOC                 IDBOC          OFF         [  0]    ***   
       DCT                  IDCT           OFF         [  0]    ***   
       DERIV_LEV            IDRLVL         ZERO        [  0]    ***   
       DEVMEM_SIZE          IDVMEM          50000000           MByte  
       DIAG_MRCC            IEOMST          10D-  0             ***   
       DIFF_TYPE            IDIFTY         RELAXED     [  0]    ***   
       DIRECT               IDIRCT         OFF         [  0]    ***   
       DROPMO               IDRPMO      NONE         
       ECP                  IECP           OFF         [  0]    ***   
       EIGENVECTOR          IVEC                1               ***   
       EL_ANHARM            IELANH         OFF         [  0]    ***   
       EOMFOLLOW            IEOMSR         ENERGY      [  0]    ***   
       EOMIP                IEOMIP         OFF         [  0]    ***   
       EOMLEVEL             HBARFM         SAME        [  0]    ***   
       EOM_MRCC             IMRCCE         NEW         [  1]    ***   
       EOM_NONIT            EOMNON         OFF         [  0]    ***   
       EOM_NSING            IEOMSI          10D-  0             ***   
       EOM_NSTATES          IMRCCD         DAVIDSON    [  0]    ***   
       EOM_NTRIP            IEOMTR          10D-  0             ***   
       EOM_ORDER            IEXORD         ENERGY      [  0]    ***   
       EOM_PROPSTA          IEOMST              0               ***   
       ESTATE_CONV          IEXTOL          10D-  5             ***   
       ESTATE_DIAG          IEXDIG         ITERATIVE   [  0]    ***   
       ESTATE_LOCK          IESLOC         ON          [  1]    ***   
       ESTATE_MAXC          IEXMXC             40               ***   
       ESTATE_PROP          IEXPRP         OFF         [  0]    ***   
       EVAL_HESS            IRECAL              0            # of cyc.
       EXCITATION           IEXCIT              0               ***   
       EXCITE               IEXCIT         NONE        [  0]    ***   
       EXTERN_POT           IEXPOT         OFF         [  0]    ***   
       FCGRADNEW            IFCGNW         OFF         [  0]    ***   
       FC_FIELD             IFINFC              0             x 10-6  
       FD_CALTYPE           IFDCAL         GRADONLY    [  0]    ***   
       FD_PROJECT           IFDPRJ         OFF         [  1]    ***   
       FD_STEPSIZE          IDISFD              0            10-4 bohr
       FD_USEGROUP          IFDGRP         FULL        [  0]    ***   
       FILE_RECSIZ          IFLREC              4096           words  
       FINITE_PERT          IFIPER              0             x 10-6  
       FIXGEOM              IFIXGM         OFF         [  0]    ***   
       FOCK                 IFOCK          AO          [  1]    ***   
       FREQ_ALGORI          IVIALG         STANDARD    [  0]    ***   
       FROZEN_CORE          IFROCO         ON          [  1]    ***   
       GAMMA_ABCD           IGABCD         STORE       [  0]    ***   
       GAMMA_ABCI           IGABCI         STORE       [  0]    ***   
       GENBAS_1             IGNBS1              0               ***   
       GENBAS_2             IGNBS2              0               ***   
       GENBAS_3             IGNBS3              0               ***   
       GENBAS_4             IGNBS4              0               ***   
       GEO_CONV             ICONTL              9              H/bohr 
       GEO_MAXCYC           IOPTCY             50               ***   
       GEO_MAXSTEP          IMXSTP            300            millibohr
       GEO_METHOD           INR            SINGLE_POINT[  5]    ***   
       GIAO                 IGIAO          OFF         [  1]    ***   
       GIMIC                IGIMIC         OFF         [  0]    ***   
       GRID                 IGRID          OFF         [  0]    ***   
       GRID_ALGO            IGALGO         SERIAL      [  0]    ***   
       GUESS                IGUESS         MOREAD      [  0]    ***   
       HBAR                 IHBAR          OFF         [  0]    ***   
       HESS_TYPE            IHESTP         SCF         [  0]    ***   
       HF2_FILE             IHF2Fl         USE         [  1]    ***   
       HFSTABILITY          ISTABL         OFF         [  0]    ***   
       INCORE               INCORE         OFF         [  0]    ***   
       INPUT_MRCC           IMRCC          ON          [  1]    ***   
       INTEGRALS            INTTYP         VMOL        [  1]    ***   
       JODA_PRINT           IJPRNT              0               ***   
       KEYWORD_OUT          IDMPKW         NO          [  0]    ***   
       LINDEP_TOL           ILINDP              8               ***   
       LINEQ_CONV           IZTACN          10D- 10           cycles  
       LINEQ_EXPOR          ILMAXD              5               ***   
       LINEQ_MAXCY          ILMAXC            100               ***   
       LINEQ_TYPE           ILTYPE         DIIS        [  1]    ***   
       LOCK_ORBOCC          ILOCOC         OFF         [  0]    ***   
       MEMORY_SIZE          IMEMSZ         100000000           words  
       MEM_UNIT             IMEMU          INTEGERWORDS[  0]    ***   
       MRCC                 IMRCCC         OFF         [  0]    ***   
       MULTIPLICTY          IMULTP              1               ***   
       NACOUPLING           IVCOUP         OFF         [  0]    ***   
       NEGEVAL              IDIE           ABORT       [  0]    ***   
       NEWNORM              INEWNO         OFF         [  0]    ***   
       NON-HF               INONHF         OFF         [  0]    ***   
       NTOP_TAMP            ITOPT2             15               ***   
       NUC_MODEL            INUCMO         POINT       [  0]    ***   
       OCCUPATION           IOCCU   ESTIMATED BY SCF 
       OPEN-SHELL           IOPEN          SPIN-ORBITAL[  0]    ***   
       OPTVIB               IOPTVB         OFF         [  0]    ***   
       ORBITALS             IORBTP         STANDARD    [  0]    ***   
       PARALLEL             IPARAL         ON          [  1]    ***   
       PARA_INT             IPINTS         ON          [  1]    ***   
       PARA_PRINT           IPPRIN              0               ***   
       PERT_ORB             IPTORB         STANDARD    [  0]    ***   
       POINTS               IGRDFD              0               ***   
       PRINT                IPRNT               0               ***   
       PROPS                IPROPS         OFF         [  0]    ***   
       PROP_INTEGR          IINTYP         INTERNAL    [  0]    ***   
       PSI                  IPSI           OFF         [  0]    ***   
       QC_ALG               IQCALG         FLM         [  0]    ***   
       QC_LINALG            IQCLIN         TRIDIAG     [  2]    ***   
       QC_MAXCYC            IQCMAX          10D-100           cycles  
       QC_MAXSCFCY          IQCMSC          10D- 15           cycles  
       QC_RTRUST            IQCRTR          10D-  0           x 10-3  
       QC_SKIPSCF           IQCSKI         OFF         [  0]    ***   
       QC_START             IQCSTA          10D-  1             ***   
       QRHFGUESS            IQGUES         OFF         [  0]    ***   
       QUARTIC              IQUART         OFF         [  0]    ***   
       RAMAN_INT            IRAMIN         OFF         [  0]    ***   
       RAMAN_ORB            IRAMRE         UNRELAXED   [  0]    ***   
       RDO                  IRDOFM         OFF         [  0]    ***   
       REDUCE_REPR          REDREP         Ir          [  0]    ***   
       REFERENCE            IREFNC         RHF         [  0]    ***   
       RELATIVIST           IRELAT         OFF         [  0]    ***   
       RELAX_DENS           IRDENS         OFF         [  0]    ***   
       RESET_FLAGS          IRESET         OFF         [  0]    ***   
       RESTART_CC           ICCRES         OFF         [  0]    ***   
       ROT_EVEC             ROTVEC              0               ***   
       SAVE_INTS            ISVINT         OFF         [  0]    ***   
       SCALE_ON             ISTCRT              0               ***   
       SCF_CONV             ISCFCV          10D- 10             ***   
       SCF_DAMPING          IDAMP               0             x 10-3  
       SCF_EXPORDE          IRPPOR              6               ***   
       SCF_EXPSTAR          IRPPLS              8               ***   
       SCF_EXTRAPO          IRPP           ON          [  1]    ***   
       SCF_MAXCYC           ISCFCY            150              cycles 
       SCF_NOSTOP           ISCFST         OFF         [  0]    ***   
       SCF_PRINT            ISCFPR              0               ***   
       SCF_PROG             ISCFPR         SCF         [  0]    ***   
       SD_FIELD             IFINSD              0             x 10-6  
       SOPERT               IPERSO         OFF         [  0]    ***   
       SPHERICAL            IDFGHI         ON          [  1]    ***   
       SPINORBIT            ISOCAL         OFF         [  0]    ***   
       SPINROTATIO          ISRCON         OFF         [  0]    ***   
       SPIN_FLIP            ISPFLP         OFF         [  0]    ***   
       SPIN_ORBIT           ISPORB         OFF         [  0]    ***   
       SPIN_SCAL            ISCSMP         OFF         [  0]    ***   
       STEEPSCALE           ISTPSC              1000          x 10-3  
       SUBGROUP             ISUBGP         DEFAULT     [  0]    ***   
       SUBGRPAXIS           ISBXYZ         X           [  0]    ***   
       SYMMETRY             ISYM           ON          [  0]    ***   
       SYM_CHECK            ISYMCK         OVERRIDE    [  1]    ***   
       T3_EXTRAPOL          IT3EXT         OFF         [  0]    ***   
       T4_EXTRAPOL          IT4EXP         OFF         [  0]    ***   
       TAMP_SUM             IEVERY              5               ***   
       TESTSUITE            ITESTS         OFF         [  0]    ***   
       THERMOCH             ITHERM         OFF         [  0]    ***   
       TOL_CHOLESK          ITOLCH          10D-  4             ***   
       TRANGRAD             IRESRM         OFF         [  0]    ***   
       TRANS_INV            ITRAIN         USE         [  0]    ***   
       TREAT_PERT           ITREAT         SIMULTANEOUS[  0]    ***   
       TRIP_ALGORI          ITRALG         NORMAL      [  0]    ***   
       UIJ_THRESHO          IUIJTH              1               ***   
       UNITS                IUNITS         ANGSTROM    [  0]    ***   
       UNOS                 IUNOS          OFF         [  0]    ***   
       UPDATE_HESS          IHUPDT         ON          [  1]    ***   
       VIBPHASE             ISETPH         STANDARD    [  0]    ***   
       VIBRATION            IVIB           NO          [  0]    ***   
       VIB_ALGORIT          IGEALG         STANDARD    [  0]    ***   
       VNATORB              IVNORB         OFF         [  0]    ***   
       VTRAN                IVTRAN         FULL/PARTIAL[  0]    ***   
       XFIELD               IXEFLD              0             x 10-6  
       XFORM_TOL            IXFTOL          10D- 11             ***   
       YFIELD               IYEFLD              0             x 10-6  
       ZFIELD               IZEFLD              0             x 10-6  
       ZSCALE_EXP           IZEXPS         OFF         [  0]    ***   
    -------------------------------------------------------------------
   2 entries found in Z-matrix 
   Job Title : Unrelaxed first-order property calculation at CCSD level                        
   There are  1 unique internal coordinates.
   Of these,  0 will be optimized.
   User supplied Z-matrix: 
--------------------------------------------------------------------------------
       SYMBOL    BOND      LENGTH    ANGLE     ANGLE     DIHED     ANGLE
                  TO      (ANGST)    WRT      (DEG)      WRT      (DEG)
--------------------------------------------------------------------------------
        N    
        N          1         R1   
                  *Initial values for internal coordinates* 
                      Name             Value
                        R1              1.0980900000
--------------------------------------------------------------------------------
  filter applied 
   Rotational constants (in cm-1): 
          1.9967665548             1.9967665548
   Rotational constants (in MHz): 
      59861.5637377337         59861.5637377337
********************************************************************************
   The full molecular point group is DXh .
   The largest Abelian subgroup of the full molecular point group is D2h .
   The computational point group is D2h .
********************************************************************************
--------------------------------------------------------------------------------
   Analysis of internal coordinates specified by Z-matrix 
--------------------------------------------------------------------------------
   *The nuclear repulsion energy is   23.613435966086566 a.u.
   *There is   1 degree of freedom within the tot. symm. molecular subspace.
   *Z-matrix requests optimization of   0 coordinates.
   *The optimization is constrained.
   *The following   1 parameters can have non-zero 
    derivatives within the totally symmetric subspace:
             R1   [ 1]
   *The following   0 parameters are to be optimized:

   *The following coordinates must be varied in an  unconstrained optimization.
             R1   [ 1]
--------------------------------------------------------------------------------


 ----------------------------------------------------------------
         Coordinates used in calculation (QCOMP) 
 ----------------------------------------------------------------
 Z-matrix   Atomic            Coordinates (in bohr)
  Symbol    Number           X              Y              Z
 ----------------------------------------------------------------
     N         7        -0.00000000     0.00000000     1.03754490
     N         7         0.00000000     0.00000000    -1.03754490
 ----------------------------------------------------------------

   Interatomic distance matrix (Angstroms) 

                 N             N    
                [ 1]        [ 2]
  N    [ 1]     0.00000
  N    [ 2]     1.09809     0.00000
 rotcon2
   Rotational constants (in cm-1): 
          1.9967665548             0.0000000000
   Rotational constants (in MHz): 
      59861.5637377337             0.0000000000
  ECPDATA file not present.   Using default ECPDATA. 
  There are   2 frozen-core orbitals.
  There are   28 basis functions.
 @GEOPT-W, Archive file not created for single-point calculation.
 @CHECKOUT-I, Total execution time (CPU/WALL):        0.15/       0.17 seconds.
--executable xjoda finished with status     0 in        0.18 seconds (walltime).
 --invoking executable--
/home/irmler/Programs/cfour_hacked/bin//xvmol
 SERIAL VERSION OF MOLECULE STARTED
********************************************************************************
                    INPUT FROM MOL FILE
********************************************************************************
INTGRL        1    0    1    0    0    0    0    0    0                         
         *** CFOUR Program System (Release V0.1) ***                            
Unrelaxed first-order property calculation at CCSD level                        
    1    3 X  Y   Z   0.10E-08              0    0                              
   9999.00      3.00                                                            
          7.00000000    1    3    1    1    1                                   
N #1  -0.000000000000000   0.000000000000000   1.037544897539973                
    9    3                                                                      
   9046.0000000000000        6.9999999999999999E-004  -1.5300000000000001E-004  
   1357.0000000000000        5.3889999999999997E-003  -1.2080000000000001E-003  
   309.30000000000001        2.7406000000000000E-002  -5.9919999999999999E-003  
   87.730000000000004       0.10320699999999999       -2.4544000000000000E-002  
   28.559999999999999       0.27872300000000000       -6.7459000000000005E-002  
   10.210000000000001       0.44853999999999999      -0.15807800000000000       
   3.8380000000000001       0.27823799999999999      -0.12183099999999999       
  0.74660000000000004        1.5440000000000001E-002  0.54900300000000002       
  0.22480000000000000       -2.8639999999999998E-003  0.57881499999999997       
    4    2                                                                      
   13.550000000000001        3.9919000000000003E-002   0.0000000000000000       
   2.9169999999999998       0.21716900000000000        0.0000000000000000       
  0.79730000000000001       0.51031899999999997        0.0000000000000000       
  0.21850000000000000       0.46221400000000001        1.0000000000000000       
    1    1                                                                      
  0.81699999999999995        1.0000000000000000                                 
FINISH                                                                          

********************************************************************************

Running with 1 threads/proc

 ONE- AND TWO-ELECTRON INTEGRALS OVER SYMMETRY-ADAPTED AOS ARE CALCULATED.

  SPHERICAL HARMONICS ARE USED.
  
  INTEGRALS LESS THAN  0.10E-13 ARE NEGLECTED.

  NUCLEAR REPULSION ENERGY :   23.6134359661 A.U.
  @MOLECU-I, ONE ELECTRON INTEGRALS (CPU/WALL):        0.00/       0.00 SECONDS.
  @TWOEL-I,        634 INTEGRALS OF SYMMETRY TYPE  I I I I
  @TWOEL-I,       3036 INTEGRALS OF SYMMETRY TYPE  I J I J
  @TWOEL-I,       2217 INTEGRALS OF SYMMETRY TYPE  I I J J
  @TWOEL-I,       4494 INTEGRALS OF SYMMETRY TYPE  I J K L
  @TWOEL-I, TOTAL NUMBER OF 2-E INTEGRALS      10381.
  @MOLECU-I, TWO ELECTRON INTEGRALS (CPU/WALL):        0.01/       0.02 SECONDS.
 @CHECKOUT-I, Total execution time (CPU/WALL):        0.02/       0.03 seconds.
--executable xvmol finished with status     0 in        0.04 seconds (walltime).
 --invoking executable--
/home/irmler/Programs/cfour_hacked/bin//xvmol2ja
 @GETMEM-I,  Allocated     762 MB of main memory.
 @CHECKOUT-I, Total execution time (CPU/WALL):        0.00/       0.01 seconds.
--executable xvmol2ja finished with status     0 in        0.01 seconds (walltime).
 --invoking executable--
/home/irmler/Programs/cfour_hacked/bin//xvscf
  There are   28 functions in the AO basis.

  There are 8 irreducible representations.

       Irrep        # of functions
         1                  7
         2                  3
         3                  3
         4                  1
         5                  7
         6                  3
         7                  3
         8                  1


  Parameters for SCF calculation: 
        SCF reference function:  RHF  
  Maximum number of iterations:  150
     Full symmetry point group: DXh 
     Computational point group: D2h 
        Initial density matrix: MOREAD                 
     SCF convergence tolerance: 10**(-10)
  DIIS convergence acceleration:  ON
          Latest start for DIIS:   8
                     DIIS order:   6

     Alpha population by irrep:   3    1    1    0    2    0    0    0
      Beta population by irrep:   3    1    1    0    2    0    0    0


  Memory information:      70066 words required.
  Fock matrices are constructed from AO integral file.
 @GETMEM-I,  Allocated       0 MB of main memory.
  Initialization and symmetry analysis required      0.001 seconds.

  starting vectors read from OLDMOS 
 @INITGES-I, Nonstandard initial guessing procedure. 
  --------------------------------------------------------------------
  Iteration         Total Energy            Largest Density Difference
  --------------------------------------------------------------------
       0          -108.954074041695407              0.0000000000D+00
   current occupation vector 
     3  1  1  0  2  0  0  0
     3  1  1  0  2  0  0  0
     E(SCF)=      -108.954074041695520              0.7094325127D-13

   current occupation vector 
     3  1  1  0  2  0  0  0
     3  1  1  0  2  0  0  0

  SCF has converged.

 Density matrix saved to file den.dat
 total electron number:   14.000000000000020     
     E(SCF)=      -108.954074041695577              0.1014743845D-12

  Eigenvector printing suppressed.

 @PUTMOS-I, Writing converged MOs to NEWMOS. 
 @PUTMOS-I, Symmetry   1 Full Blocks  1 Partial Blocksize   3
 @PUTMOS-I, Symmetry   2 Full Blocks  0 Partial Blocksize   3
 @PUTMOS-I, Symmetry   3 Full Blocks  0 Partial Blocksize   3
 @PUTMOS-I, Symmetry   4 Full Blocks  0 Partial Blocksize   1
 @PUTMOS-I, Symmetry   5 Full Blocks  1 Partial Blocksize   3
 @PUTMOS-I, Symmetry   6 Full Blocks  0 Partial Blocksize   3
 @PUTMOS-I, Symmetry   7 Full Blocks  0 Partial Blocksize   3
 @PUTMOS-I, Symmetry   8 Full Blocks  0 Partial Blocksize   1
 @PUTMOS-I, NEWMOS already exists and will be deleted. 
 @PUTFOCK-I, Writing converged Fock matrix to NEWFOCK. 
 @PUTFOCK-I, Symmetry   1 Full Blocks  1 Partial Blocksize   3
 @PUTFOCK-I, Symmetry   2 Full Blocks  0 Partial Blocksize   3
 @PUTFOCK-I, Symmetry   3 Full Blocks  0 Partial Blocksize   3
 @PUTFOCK-I, Symmetry   4 Full Blocks  0 Partial Blocksize   1
 @PUTFOCK-I, Symmetry   5 Full Blocks  1 Partial Blocksize   3
 @PUTFOCK-I, Symmetry   6 Full Blocks  0 Partial Blocksize   3
 @PUTFOCK-I, Symmetry   7 Full Blocks  0 Partial Blocksize   3
 @PUTFOCK-I, Symmetry   8 Full Blocks  0 Partial Blocksize   1
 @PUTFOCK-I, NEWFOCK already exists and will be deleted. 



  ORBITAL EIGENVALUES (ALPHA)  (1H = 27.2113834 eV)

       MO #        E(hartree)               E(eV)           FULLSYM    COMPSYM
       ----   --------------------   --------------------   -------   ---------
    1     1         -15.6865628478        -426.8530758791    SGg+        Ag (1)
    2    15         -15.6831681789        -426.7607022420    SGu+       B1u (5)
    3     2          -1.4709056596         -40.0253778481    SGg+        Ag (1)
    4    16          -0.7742302912         -21.0678772933    SGu+       B1u (5)
    5     3          -0.6261920344         -17.0395515308    SGg+        Ag (1)
    6     8          -0.6079851076         -16.5441158633    PIu        B2u (2)
    7    11          -0.6079851076         -16.5441158633    PIu        B3u (3)
  +++++++++++++++++++++++++++++++++++++++++++++++++++++++++++++++++++++++++++++
    8    25           0.1754402445           4.7739717577    PIg        B2g (7)
    9    22           0.1754402445           4.7739717577    PIg        B3g (6)
   10    17           0.5945049630          16.1773024806    SGu+       B1u (5)
   11     4           0.8202364168          22.3197676167    SGg+        Ag (1)
   12     9           0.8723306492          23.7373237482    PIu        B2u (2)
   13    12           0.8723306492          23.7373237482    PIu        B3u (3)
   14     5           0.9921949375          26.9989968514    SGg+        Ag (1)
   15    26           1.0509481007          28.5977517028    PIg        B2g (7)
   16    23           1.0509481007          28.5977517028    PIg        B3g (6)
   17    18           1.1437796097          31.1238254835    SGu+       B1u (5)
   18    19           1.6428055494          44.7030116558    SGu+       B1u (5)
   19    14           1.7575251390          47.8246903935    DEg        B1g (4)
   20     6           1.7575251390          47.8246903935    DEg         Ag (1)
   21    13           1.8816361110          51.2019216344    PIu        B3u (3)
   22    10           1.8816361110          51.2019216344    PIu        B2u (2)
   23    28           2.2987053306          62.5509520757    DEu         Au (8)
   24    20           2.2987053306          62.5509520757    DEu        B1u (5)
   25     7           2.8740306969          78.2063511958    SGg+        Ag (1)
   26    24           2.9960148616          81.5257090702    PIg        B3g (6)
   27    27           2.9960148616          81.5257090702    PIg        B2g (7)
   28    21           3.2829204670          89.3328074986    SGu+       B1u (5)


  VSCF finished.

 @CHECKOUT-I, Total execution time (CPU/WALL):        0.01/       0.02 seconds.
--executable xvscf finished with status     0 in        0.02 seconds (walltime).
 --invoking executable--
/home/irmler/Programs/cfour_hacked/bin//xvtran
 @GETMEM-I,  Allocated     762 MB of main memory.
  Full RHF integral transformation
  The following   2 MOs will be dropped:
    1  6
  There are  26 active molecular orbitals.
  Transformation of IIII integrals :
  1 pass through the AO integral file was required.
         634 AO integrals were read.
         407 MO integrals were written to HF2.
  Transformation of IIJJ integrals :
  1 pass through the AO integral file was required.
        2217 AO integrals were read.
        1639 MO integrals were written to HF2.
  Transformation of IJIJ integrals :
  1 pass through the AO integral file was required.
        3036 AO integrals were read.
        2199 MO integrals were written to HF2.
  Transformation of IJKL integrals :
  1 pass through the AO integral file was required.
        4494 AO integrals were read.
        3546 MO integrals were written to HF2.
  Summary of active molecular orbitals: 
------------------------------------------------------------------------

  Index      Eigenvalue    Symmetry    Index      Eigenvalue    Symmetry
------------------------------------------------------------------------
     1        -1.4709057        1        14         1.7575251        4
     2        -0.6261920        1        15         0.5945050        5
     3        -0.6079851        2        16         1.1437796        5
     4        -0.6079851        3        17         1.6428055        5
     5        -0.7742303        5        18         2.2987053        5
     6         0.8202364        1        19         3.2829205        5
     7         0.9921949        1        20         0.1754402        6
     8         1.7575251        1        21         1.0509481        6
     9         2.8740307        1        22         2.9960149        6
    10         0.8723306        2        23         0.1754402        7
    11         1.8816361        2        24         1.0509481        7
    12         0.8723306        3        25         2.9960149        7
    13         1.8816361        3        26         2.2987053        8
------------------------------------------------------------------------
  -1.4709056595820866      -0.62619203442550841      -0.60798510755988722      -0.60798510755988699      -0.77423029118248776       0.82023641681729276       0.99219493748430332        1.7575251390386892        2.8740306968646276       0.87233064924767556        1.8816361109513828       0.87233064924767956        1.8816361109513808        1.7575251390386881       0.59450496297251465        1.1437796096568171        1.6428055493783105        2.2987053306407770        3.2829204669760252       0.17544024453148899        1.0509481007418515        2.9960148615667301       0.17544024453148688        1.0509481007418471        2.9960148615667350        2.2987053306407761     
 @CHECKOUT-I, Total execution time (CPU/WALL):        0.01/       0.05 seconds.
--executable xvtran finished with status     0 in        0.06 seconds (walltime).
 --invoking executable--
/home/irmler/Programs/cfour_hacked/bin//xintprc
 @GETMEM-I,  Allocated     762 MB of main memory.
  @GMOIAA-I, Processing MO integrals for spin case AA.
  @GMOIAA-I, Generation of integral list completed.
                      TYPE                NUMBER
                      ----               --------
                      PPPP                  3369
                      PPPH                  2938
                      PPHH                   744
                      PHPH                   495
                      PHHH                   212
                      HHHH                    33

                     TOTAL                  7791

  @FORMT2-I, Second-order MP correlation energies:
            ------------------------------------------------
            E(SCF)                  =   -108.954074041696 a.u.
            E2(AA)                  =     -0.040909888072 a.u.
            E2(AB)                  =     -0.224594839408 a.u.
            E2(TOT)                 =     -0.306414615552 a.u.
            Total MP2 energy        =   -109.260488657247 a.u.
            ------------------------------------------------
   Largest T2 amplitudes for spin case AB:
       _       _                 _       _                 _       _
   i   j   a   b             i   j   a   b             i   j   a   b
-----------------------------------------------------------------------------
[  4   4  23  23]-0.08757 [  3   3  20  20]-0.08757 [  4   3  23  20]-0.07013
[  3   4  20  23]-0.07013 [  5   5  23  23]-0.03781 [  5   5  20  20]-0.03781
[  2   2  16  16]-0.03250 [  4   2  23  16] 0.03109 [  2   4  16  23] 0.03109
[  2   3  16  20] 0.03109 [  3   2  20  16] 0.03109 [  3   3  20  21]-0.02980
[  3   3  21  20]-0.02980 [  4   4  24  23]-0.02980 [  4   4  23  24]-0.02980
-----------------------------------------------------------------------------
   Norm of T2AB vector (     1499 symmetry allowed elements):  0.2805247997.
-----------------------------------------------------------------------------
 @CHECKOUT-I, Total execution time (CPU/WALL):        0.01/       0.04 seconds.
--executable xintprc finished with status     0 in        0.05 seconds (walltime).
  calling xncc 
 --invoking executable--
/home/irmler/Programs/cfour_hacked/bin//xncc
 @GETMEM-I,  Allocated       7 MB of main memory.

Running with 1 threads/proc

Using DIIS to accelerate the convergence of T1 and T2
Using immediate high-order contributions
Performing 3 CCSD sub-iterations
Damping factor for T3: 0.000000
Damping factor for T4: 0.000000

Transposes are coarse-threaded

Memory limit:                762.939 MiB
Minimum memory requirement:  235.742 KiB
Compromise memory amount:    447.234 KiB
Optimal memory requirement:  907.969 KiB

List              Location   Size        Cached Hunks Est. Disk I/O
----------------- ---------- ----------- ------ ----- -------------

           T_DIIS       70:0   59.219 KiB    Yes     -     1.041 MiB
           Z_DIIS       70:1   59.219 KiB    Yes     -     1.735 MiB
          <AI|bj>         18   11.711 KiB    Yes     -     1.676 MiB
          <Ab|Cd>        233  194.695 KiB    Yes     -    14.260 MiB
          <Ab|Ci>         30   47.148 KiB    Yes     -    22.101 MiB
          <Ab|Ij>         16   11.711 KiB    Yes     -     7.056 MiB
          <Ai|Bj>         25   11.711 KiB    Yes     -     1.544 MiB
          <Aj|bI>         21   11.711 KiB     No     -         0   B
          <Ij|Ka>         10    2.852 KiB    Yes     -     1.921 MiB
          <Ij|Kl>         13      872   B    Yes     -    51.094 KiB
            F(EA)       92:0      552   B    Yes     -   323.438 KiB
            F(EM)       93:0      136   B    Yes     -    39.844 KiB
            F(MI)       91:0       56   B    Yes     -    36.094 KiB
            Q(AI)      190:2      136   B    Yes     -    21.914 KiB
         Q(Ab,Ij)         50   11.711 KiB    Yes     -     6.347 MiB
            T(AI)       90:0      136   B    Yes     -   139.586 KiB
         T(Ab,Ij)         46   11.711 KiB    Yes     -    11.517 MiB
         W(Mn,Ij)         53      872   B    Yes     -   114.961 KiB
        W~(Ab,Ej)        130   47.148 KiB    Yes     -    21.041 MiB
        W~(EM,bj)         56   11.711 KiB    Yes     -     4.289 MiB
        W~(Em,Bj)         58   11.711 KiB    Yes     -     4.289 MiB
        W~(Ij,Mb)        110    2.852 KiB    Yes     -   855.469 KiB
       W~~(Ab,Ej)        169   47.148 KiB    Yes     -   707.227 KiB
       W~~(EM,bj)         76   11.711 KiB    Yes     -     1.372 MiB
       W~~(Em,Bj)         78   11.711 KiB    Yes     -     1.372 MiB
       W~~(Ij,Mb)        165    2.852 KiB    Yes     -    42.773 KiB
            Z(AI)       90:2      136   B    Yes     -    61.758 KiB
         Z(Ab,Ij)         63   11.711 KiB    Yes     -     5.318 MiB
       T(abc,ijk)          -  277.750 KiB     No     1         0   B
       Z(abc,ijk)          -  277.750 KiB     No     1         0   B

Simulation and memory analysis took 0.052 seconds

MP2 correlation energy:  -0.306414615551748

Non-iterative calculation of MP2 took 0.000 cpu seconds and 0.000 walltime seconds at 0.112 Gflops/sec

Total MP2 energy: -109.260488657247322

Beginning iterative solution of CCSDT-3 equations:

It.  Correlation Energy T1 Residual T2 Residual CPU Time (s) Walltime (s)
-------------------------------------------------------------------------
  1  -0.320581119301210 2.92305e-03 7.66756e-03        0.069        0.070
  2  -0.320367167912850 2.19642e-04 6.73720e-04        0.068        0.070
  3  -0.320386720775458 1.58728e-05 5.40079e-05        0.069        0.070
  4  -0.320390090515584 1.19073e-06 3.45888e-06        0.069        0.070
  5  -0.320390186169420 8.20112e-08 3.88115e-07        0.068        0.070
  6  -0.320390178583535 5.16435e-09 4.54510e-08        0.069        0.070
  7  -0.320390178887036 5.64988e-10 5.29276e-09        0.069        0.070
  8  -0.320390178901765 4.55744e-11 6.11333e-10        0.068        0.070
  9  -0.320390178899744 4.44504e-12 6.95016e-11        0.069        0.075

CCSDT-3 iterations converged in 9 cycles and 0.637 seconds (0.071 s/it.) at 0.110 Gflops/sec

Total CCSDT-3 energy: -109.274464220595320

 @CHECKOUT-I, Total execution time (CPU/WALL):        0.67/       0.70 seconds.
--executable xncc finished with status     0 in        0.72 seconds (walltime).
  The final electronic energy is      -109.274464220595320 a.u. 
  This computation required                            1.08 seconds (walltime).
