 argument  1 = input.nw
                                         
                                         


             Northwest Computational Chemistry Package (NWChem) 7.0.0
             --------------------------------------------------------


                    Environmental Molecular Sciences Laboratory
                       Pacific Northwest National Laboratory
                                Richland, WA 99352

                              Copyright (c) 1994-2019
                       Pacific Northwest National Laboratory
                            Battelle Memorial Institute

             NWChem is an open-source computational chemistry package
                        distributed under the terms of the
                      Educational Community License (ECL) 2.0
             A copy of the license is included with this distribution
                              in the LICENSE.TXT file

                                  ACKNOWLEDGMENT
                                  --------------

            This software and its documentation were developed at the
            EMSL at Pacific Northwest National Laboratory, a multiprogram
            national laboratory, operated for the U.S. Department of Energy
            by Battelle under Contract Number DE-AC05-76RL01830. Support
            for this work was provided by the Department of Energy Office
            of Biological and Environmental Research, Office of Basic
            Energy Sciences, and the Office of Advanced Scientific Computing.


           Job information
           ---------------

    hostname        = cqc05
    program         = nwchem
    date            = Tue Jan 21 09:57:54 2025

    compiled        = Mon_Mar_09_19:57:00_2020
    source          = /build/nwchem-24Ysn1/nwchem-7.0.0
    nwchem branch   = 7.0.0
    nwchem revision = N/A
    ga revision     = 5.7.1
    use scalapack   = T
    input           = input.nw
    prefix          = input.
    data base       = ./input.db
    status          = startup
    nproc           =        1
    time left       =     -1s



           Memory information
           ------------------

    heap     =  262143994 doubles =   2000.0 Mbytes
    stack    =  262143999 doubles =   2000.0 Mbytes
    global   =  524288000 doubles =   4000.0 Mbytes (distinct from heap & stack)
    total    = 1048575993 doubles =   8000.0 Mbytes
    verify   = yes
    hardfail = no 


           Directory information
           ---------------------

  0 permanent = .
  0 scratch   = .




                                NWChem Input Module
                                -------------------


                                        HF
                                        --

 Scaling coordinates for geometry "geometry" by  1.889725989
 (inverse scale =  0.529177249)

 Turning off AUTOSYM since
 SYMMETRY directive was detected!



                             Geometry "geometry" -> ""
                             -------------------------

 Output coordinates in angstroms (scale by  1.889725989 to convert to a.u.)

  No.       Tag          Charge          X              Y              Z
 ---- ---------------- ---------- -------------- -------------- --------------
    1 N                    7.0000     0.00000000     0.00000000    -0.54904500
    2 N                    7.0000     0.00000000     0.00000000     0.54904500

      Atomic Mass 
      ----------- 

      N                 14.003070


 Effective nuclear repulsion energy (a.u.)      23.6134426149

            Nuclear Dipole moment (a.u.) 
            ----------------------------
        X                 Y               Z
 ---------------- ---------------- ----------------
     0.0000000000     0.0000000000     0.0000000000


            XYZ format geometry
            -------------------
     2
 geometry
 N                     0.00000000     0.00000000    -0.54904500
 N                     0.00000000     0.00000000     0.54904500

 ==============================================================================
                                internuclear distances
 ------------------------------------------------------------------------------
       center one      |      center two      | atomic units |  angstroms
 ------------------------------------------------------------------------------
    2 N                |   1 N                |     2.07509  |     1.09809
 ------------------------------------------------------------------------------
                         number of included internuclear distances:          1
 ==============================================================================



                      Basis "ao basis" -> "" (spherical)
                      -----
  N (Nitrogen)
  ------------
            Exponent  Coefficients 
       -------------- ---------------------------------------------------------
  1 S  9.04600000E+03  0.000700
  1 S  1.35700000E+03  0.005389
  1 S  3.09300000E+02  0.027406
  1 S  8.77300000E+01  0.103207
  1 S  2.85600000E+01  0.278723
  1 S  1.02100000E+01  0.448540
  1 S  3.83800000E+00  0.278238
  1 S  7.46600000E-01  0.015440

  2 S  9.04600000E+03 -0.000153
  2 S  1.35700000E+03 -0.001208
  2 S  3.09300000E+02 -0.005992
  2 S  8.77300000E+01 -0.024544
  2 S  2.85600000E+01 -0.067459
  2 S  1.02100000E+01 -0.158078
  2 S  3.83800000E+00 -0.121831
  2 S  7.46600000E-01  0.549003

  3 S  2.24800000E-01  1.000000

  4 P  1.35500000E+01  0.039919
  4 P  2.91700000E+00  0.217169
  4 P  7.97300000E-01  0.510319

  5 P  2.18500000E-01  1.000000

  6 D  8.17000000E-01  1.000000



 Summary of "ao basis" -> "" (spherical)
 ------------------------------------------------------------------------------
       Tag                 Description            Shells   Functions and Types
 ---------------- ------------------------------  ------  ---------------------
 N                          cc-pvdz                  6       14   3s2p1d


                                 NWChem SCF Module
                                 -----------------


                                        HF



  ao basis        = "ao basis"
  functions       =    28
  atoms           =     2
  closed shells   =     7
  open shells     =     0
  charge          =   0.00
  wavefunction    = RHF 
  input vectors   = atomic
  output vectors  = ./movecs.dz
  use symmetry    = F
  symmetry adapt  = F


 Summary of "ao basis" -> "ao basis" (spherical)
 ------------------------------------------------------------------------------
       Tag                 Description            Shells   Functions and Types
 ---------------- ------------------------------  ------  ---------------------
 N                          cc-pvdz                  6       14   3s2p1d



 Forming initial guess at       0.1s


 Setting tolerance for linear dependence to 1.00D-08

      Superposition of Atomic Density Guess
      -------------------------------------

 Sum of atomic energies:        -108.60004629

      Non-variational initial energy
      ------------------------------

 Total energy =    -109.110317
 1-e energy   =    -193.996010
 2-e energy   =      61.272250
 HOMO         =      -0.417459
 LUMO         =       0.035836


 Starting SCF solution at       0.2s



 ----------------------------------------------
         Quadratically convergent ROHF

 Convergence threshold     :          1.000E-09
 Maximum no. of iterations :         1000
 Final Fock-matrix accuracy:          1.000E-12
 ----------------------------------------------


              iter       energy          gnorm     gmax       time
             ----- ------------------- --------- --------- --------
                 1     -108.9421240431  4.29D-01  2.08D-01      0.2
                 2     -108.9533398873  9.95D-02  4.83D-02      0.2
                 3     -108.9540739501  1.55D-03  9.51D-04      0.3
                 4     -108.9540740844  4.23D-07  2.07D-07      0.5
                 5     -108.9540740844  2.18D-11  1.07D-11      0.7


       Final RHF  results 
       ------------------ 

         Total SCF energy =   -108.954074084437
      One-electron energy =   -194.220974515112
      Two-electron energy =     61.653457815784
 Nuclear repulsion energy =     23.613442614891

        Time for solution =      0.6s


             Final eigenvalues
             -----------------

              1      
    1  -15.6866
    2  -15.6832
    3   -1.4709
    4   -0.7742
    5   -0.6262
    6   -0.6080
    7   -0.6080
    8    0.1754
    9    0.1754
   10    0.5945
   11    0.8202
   12    0.8723
   13    0.8723
   14    0.9922
   15    1.0509
   16    1.0509
   17    1.1438

                       ROHF Final Molecular Orbital Analysis
                       -------------------------------------

 Vector    2  Occ=2.000000D+00  E=-1.568317D+01
              MO Center= -8.1D-18,  1.4D-17,  3.8D-12, r^2= 3.2D-01
   Bfn.  Coefficient  Atom+Function         Bfn.  Coefficient  Atom+Function  
  ----- ------------  ---------------      ----- ------------  ---------------
     1      0.708389  1 N  s                 15     -0.708389  2 N  s          

 Vector    3  Occ=2.000000D+00  E=-1.470906D+00
              MO Center= -2.4D-16, -2.9D-16,  1.6D-15, r^2= 4.4D-01
   Bfn.  Coefficient  Atom+Function         Bfn.  Coefficient  Atom+Function  
  ----- ------------  ---------------      ----- ------------  ---------------
     2      0.334088  1 N  s                 16      0.334088  2 N  s          
     6      0.217728  1 N  pz                20     -0.217728  2 N  pz         
     3      0.194164  1 N  s                 17      0.194164  2 N  s          

 Vector    4  Occ=2.000000D+00  E=-7.742302D-01
              MO Center=  1.1D-16,  2.3D-17, -2.7D-14, r^2= 1.3D+00
   Bfn.  Coefficient  Atom+Function         Bfn.  Coefficient  Atom+Function  
  ----- ------------  ---------------      ----- ------------  ---------------
     3      0.421924  1 N  s                 17     -0.421924  2 N  s          
     2      0.327500  1 N  s                 16     -0.327500  2 N  s          
     6     -0.215861  1 N  pz                20     -0.215861  2 N  pz         

 Vector    5  Occ=2.000000D+00  E=-6.261921D-01
              MO Center=  8.7D-16, -1.6D-16,  3.5D-14, r^2= 1.3D+00
   Bfn.  Coefficient  Atom+Function         Bfn.  Coefficient  Atom+Function  
  ----- ------------  ---------------      ----- ------------  ---------------
     6      0.454268  1 N  pz                20     -0.454268  2 N  pz         
     3     -0.330555  1 N  s                 17     -0.330555  2 N  s          
     9      0.213327  1 N  pz                23     -0.213327  2 N  pz         

 Vector    6  Occ=2.000000D+00  E=-6.079852D-01
              MO Center= -3.6D-16,  2.0D-15, -1.7D-16, r^2= 9.0D-01
   Bfn.  Coefficient  Atom+Function         Bfn.  Coefficient  Atom+Function  
  ----- ------------  ---------------      ----- ------------  ---------------
     5      0.424822  1 N  py                19      0.424822  2 N  py         
     8      0.256055  1 N  py                22      0.256055  2 N  py         

 Vector    7  Occ=2.000000D+00  E=-6.079852D-01
              MO Center=  9.4D-16, -1.6D-16,  8.0D-17, r^2= 9.0D-01
   Bfn.  Coefficient  Atom+Function         Bfn.  Coefficient  Atom+Function  
  ----- ------------  ---------------      ----- ------------  ---------------
     4      0.424822  1 N  px                18      0.424822  2 N  px         
     7      0.256055  1 N  px                21      0.256055  2 N  px         

 Vector    8  Occ=0.000000D+00  E= 1.754404D-01
              MO Center= -1.0D-16, -2.0D-16,  7.3D-16, r^2= 1.4D+00
   Bfn.  Coefficient  Atom+Function         Bfn.  Coefficient  Atom+Function  
  ----- ------------  ---------------      ----- ------------  ---------------
     8      0.677049  1 N  py                22     -0.677049  2 N  py         
     5      0.427777  1 N  py                19     -0.427777  2 N  py         

 Vector    9  Occ=0.000000D+00  E= 1.754404D-01
              MO Center= -2.4D-16, -8.8D-17,  4.7D-16, r^2= 1.4D+00
   Bfn.  Coefficient  Atom+Function         Bfn.  Coefficient  Atom+Function  
  ----- ------------  ---------------      ----- ------------  ---------------
     7      0.677049  1 N  px                21     -0.677049  2 N  px         
     4      0.427777  1 N  px                18     -0.427777  2 N  px         

 Vector   10  Occ=0.000000D+00  E= 5.945051D-01
              MO Center= -1.9D-17, -1.3D-16,  2.1D-13, r^2= 3.2D+00
   Bfn.  Coefficient  Atom+Function         Bfn.  Coefficient  Atom+Function  
  ----- ------------  ---------------      ----- ------------  ---------------
     3      3.938093  1 N  s                 17     -3.938093  2 N  s          
     9      2.631735  1 N  pz                23      2.631735  2 N  pz         
     2      0.168739  1 N  s                 16     -0.168739  2 N  s          

 Vector   11  Occ=0.000000D+00  E= 8.202363D-01
              MO Center= -2.3D-15, -1.8D-15, -8.8D-14, r^2= 2.2D+00
   Bfn.  Coefficient  Atom+Function         Bfn.  Coefficient  Atom+Function  
  ----- ------------  ---------------      ----- ------------  ---------------
     9      0.945755  1 N  pz                23     -0.945755  2 N  pz         
     6     -0.460324  1 N  pz                20      0.460324  2 N  pz         
     2     -0.301596  1 N  s                 16     -0.301596  2 N  s          
     1     -0.157699  1 N  s                 15     -0.157699  2 N  s          

 Vector   12  Occ=0.000000D+00  E= 8.723306D-01
              MO Center=  5.1D-19, -2.6D-15, -7.5D-14, r^2= 1.7D+00
   Bfn.  Coefficient  Atom+Function         Bfn.  Coefficient  Atom+Function  
  ----- ------------  ---------------      ----- ------------  ---------------
     5      0.642381  1 N  py                19      0.642381  2 N  py         
     8     -0.619891  1 N  py                22     -0.619891  2 N  py         

 Vector   13  Occ=0.000000D+00  E= 8.723306D-01
              MO Center=  3.8D-15,  5.3D-17, -7.0D-14, r^2= 1.7D+00
   Bfn.  Coefficient  Atom+Function         Bfn.  Coefficient  Atom+Function  
  ----- ------------  ---------------      ----- ------------  ---------------
     4      0.642381  1 N  px                18      0.642381  2 N  px         
     7     -0.619891  1 N  px                21     -0.619891  2 N  px         

 Vector   14  Occ=0.000000D+00  E= 9.921950D-01
              MO Center= -2.2D-15,  3.1D-15, -1.5D-13, r^2= 1.8D+00
   Bfn.  Coefficient  Atom+Function         Bfn.  Coefficient  Atom+Function  
  ----- ------------  ---------------      ----- ------------  ---------------
     2      1.038541  1 N  s                 16      1.038541  2 N  s          
     3     -0.933580  1 N  s                 17     -0.933580  2 N  s          
     1      0.427109  1 N  s                 15      0.427109  2 N  s          
     6     -0.268972  1 N  pz                20      0.268972  2 N  pz         
     9      0.181418  1 N  pz                23     -0.181418  2 N  pz         

 Vector   15  Occ=0.000000D+00  E= 1.050948D+00
              MO Center= -7.1D-18, -2.5D-15,  7.2D-14, r^2= 2.0D+00
   Bfn.  Coefficient  Atom+Function         Bfn.  Coefficient  Atom+Function  
  ----- ------------  ---------------      ----- ------------  ---------------
     8      1.157064  1 N  py                22     -1.157064  2 N  py         
     5     -0.732638  1 N  py                19      0.732638  2 N  py         

 Vector   16  Occ=0.000000D+00  E= 1.050948D+00
              MO Center= -6.8D-16,  1.9D-19,  6.7D-14, r^2= 2.0D+00
   Bfn.  Coefficient  Atom+Function         Bfn.  Coefficient  Atom+Function  
  ----- ------------  ---------------      ----- ------------  ---------------
     7      1.157064  1 N  px                21     -1.157064  2 N  px         
     4     -0.732638  1 N  px                18      0.732638  2 N  px         

 Vector   17  Occ=0.000000D+00  E= 1.143780D+00
              MO Center=  3.6D-16,  2.8D-15,  1.4D-14, r^2= 1.2D+00
   Bfn.  Coefficient  Atom+Function         Bfn.  Coefficient  Atom+Function  
  ----- ------------  ---------------      ----- ------------  ---------------
     6      0.755805  1 N  pz                20      0.755805  2 N  pz         
     3      0.642296  1 N  s                 17     -0.642296  2 N  s          
    12     -0.230388  1 N  d  0              26      0.230388  2 N  d  0       
     2     -0.225630  1 N  s                 16      0.225630  2 N  s          
     9     -0.190140  1 N  pz                23     -0.190140  2 N  pz         


 center of mass
 --------------
 x =   0.00000000 y =   0.00000000 z =   0.00000000

 moments of inertia (a.u.)
 ------------------
          30.148576332127           0.000000000000           0.000000000000
           0.000000000000          30.148576332127           0.000000000000
           0.000000000000           0.000000000000           0.000000000000

  Mulliken analysis of the total density
  --------------------------------------

    Atom       Charge   Shell Charges
 -----------   ------   -------------------------------------------------------
    1 N    7     7.00   2.00  0.86  0.89  2.13  1.06  0.07
    2 N    7     7.00   2.00  0.86  0.89  2.13  1.06  0.07

       Multipole analysis of the density wrt the origin
       ------------------------------------------------

     L   x y z        total         open         nuclear
     -   - - -        -----         ----         -------
     0   0 0 0     -0.000000      0.000000     14.000000

     1   1 0 0     -0.000000      0.000000      0.000000
     1   0 1 0     -0.000000      0.000000      0.000000
     1   0 0 1     -0.000000      0.000000      0.000000

     2   2 0 0     -7.540493      0.000000      0.000000
     2   1 1 0     -0.000000      0.000000      0.000000
     2   1 0 1     -0.000000      0.000000      0.000000
     2   0 2 0     -7.540493      0.000000      0.000000
     2   0 1 1     -0.000000      0.000000      0.000000
     2   0 0 2     -8.667089      0.000000     15.070983

                   NWChem MP2 Semi-direct Energy/Gradient Module
                   ---------------------------------------------


                                        HF


  Basis functions       =     28
  Molecular orbitals    =     28
  Frozen core           =      2
  Frozen virtuals       =      0
  Active alpha occupied =      5
  Active beta occupied  =      5
  Active alpha virtual  =     21
  Active beta virtual   =     21
  Use MO symmetry       = F
  Use skeleton AO sym   = F

  AO/Fock/Back tols     =   1.0D-09  1.0D-09  1.0D-09

 GA uses MA = F    GA memory limited = T

 Available: 
  local mem=  5.24D+08
 global mem=  5.24D+08
 local disk=  1.94D+12
  mp2_memr nvloc                    21
  nvloc new                    21
   1 passes of   5:         339849                       4276                    146329.

 Semi-direct pass number   1 of   1  for RHF alpha+beta  at        0.9s
  vrange nnbf                   406
Node 0 wrote      0.3 Mb in      0.0 s     Agg I/O rate:   966.1 Mb/s
 Done moints_semi at        1.0s
 Done maket at        1.0s
 Done multipass loop at        1.0s


          -------------------------------------------
          SCF energy                -108.954074084437
          Correlation energy          -0.306414522368
          Singlet pairs               -0.183684900714
          Triplet pairs               -0.122729621654
          Total MP2 energy          -109.260488606805
          -------------------------------------------



          ---------------------------------------------------
                    Spin Component Scaled (SCS) MP2
          Same spin pairs                     -0.081819747769
          Same spin scaling factor             0.333333333333
          Opposite spin pairs                 -0.224594774599
          Opposite spin scaling fact.          1.200000000000
          SCS-MP2 correlation energy          -0.296786978775
          Total SCS-MP2 energy              -109.250861063212
          ---------------------------------------------------

 -----------------------
 Performance information
 -----------------------

 Timer overhead =  6.78D-07 seconds/call

               Nr. of calls         CPU time (s)                 Wall time (s)                GFlops
             ---------------    -------------------     ------------------------------   -------------------
Name         Min   Avg   Max    Min     Avg     Max     Min     Avg     Max   Mx/calls   Min     Max     Sum
mp2: moin     1     1     1   9.91E-2 9.91E-2 9.91E-2  0.10    0.10    0.10    0.10      0.0     0.0     0.0   
mp2: make     1     1     1   3.81E-3 3.81E-3 3.81E-3  3.81E-3 3.81E-3 3.81E-3 3.81E-3   0.0     0.0     0.0   
mp2: tota     1     1     1   0.12    0.12    0.12     0.28    0.28    0.28    0.28      0.0     0.0     0.0   

 The average no. of pstat calls per process was 3.00D+00
 with a timing overhead of 2.03D-06s


 Task  times  cpu:        0.8s     wall:        1.0s


                                NWChem Input Module
                                -------------------


 Summary of allocated global arrays
-----------------------------------
  No active global arrays



                         GA Statistics for process    0
                         ------------------------------

       create   destroy   get      put      acc     scatter   gather  read&inc
calls:  318      318     6646     1898     3537        0        0      516     
number of processes/call 0.00e+00 0.00e+00 0.00e+00 0.00e+00 0.00e+00
bytes total:             2.10e+06 2.38e+06 5.14e+05 0.00e+00 0.00e+00 4.13e+03
bytes remote:            0.00e+00 0.00e+00 0.00e+00 0.00e+00 0.00e+00 0.00e+00
Max memory consumed for GA by this process: 1329672 bytes

MA_summarize_allocated_blocks: starting scan ...
MA_summarize_allocated_blocks: scan completed: 0 heap blocks, 0 stack blocks
MA usage statistics:

	allocation statistics:
					      heap	     stack
					      ----	     -----
	current number of blocks	         0	         0
	maximum number of blocks	        16	        22
	current total bytes		         0	         0
	maximum total bytes		     80152	  22509592
	maximum total K-bytes		        81	     22510
	maximum total M-bytes		         1	        23


                                     CITATION
                                     --------
                Please cite the following reference when publishing
                           results obtained with NWChem:

                 M. Valiev, E.J. Bylaska, N. Govind, K. Kowalski,
              T.P. Straatsma, H.J.J. van Dam, D. Wang, J. Nieplocha,
                        E. Apra, T.L. Windus, W.A. de Jong
                 "NWChem: a comprehensive and scalable open-source
                  solution for large scale molecular simulations"
                      Comput. Phys. Commun. 181, 1477 (2010)
                           doi:10.1016/j.cpc.2010.04.018

                                      AUTHORS
                                      -------
     E. Apra, E. J. Bylaska, N. Govind, K. Kowalski, M. Valiev, W. A. de Jong,
      T. P. Straatsma, H. J. J. van Dam, D. Wang, T. L. Windus, N. P. Bauman,
       A. Panyala, J. Hammond, J. Autschbach, K. Bhaskaran-Nair, J. Brabec,
    K. Lopata, S. A. Fischer, S. Krishnamoorthy, M. Jacquelin, W. Ma, M. Klemm,
       O. Villa, Y. Chen, V. Anisimov, F. Aquino, S. Hirata, M. T. Hackler,
           Eric Hermes, L. Jensen, J. E. Moore, J. C. Becca, V. Konjkov,
            D. Mejia-Rodriguez, T. Risthaus, M. Malagoli, A. Marenich,
   A. Otero-de-la-Roza, J. Mullin, P. Nichols, R. Peverati, J. Pittner, Y. Zhao,
        P.-D. Fan, A. Fonari, M. J. Williamson, R. J. Harrison, J. R. Rehr,
      M. Dupuis, D. Silverstein, D. M. A. Smith, J. Nieplocha, V. Tipparaju,
      M. Krishnan, B. E. Van Kuiken, A. Vazquez-Mayagoitia, M. Swart, Q. Wu,
   T. Van Voorhis, A. A. Auer, M. Nooijen, L. D. Crosby, E. Brown, G. Cisneros,
     G. I. Fann, H. Fruchtl, J. Garza, K. Hirao, R. A. Kendall, J. A. Nichols,
       K. Tsemekhman, K. Wolinski, J. Anchell, D. E. Bernholdt, P. Borowski,
       T. Clark, D. Clerc, H. Dachsel, M. J. O. Deegan, K. Dyall, D. Elwood,
      E. Glendening, M. Gutowski, A. C. Hess, J. Jaffe, B. G. Johnson, J. Ju,
        R. Kobayashi, R. Kutteh, Z. Lin, R. Littlefield, X. Long, B. Meng,
      T. Nakajima, S. Niu, L. Pollack, M. Rosing, K. Glaesemann, G. Sandrone,
      M. Stave, H. Taylor, G. Thomas, J. H. van Lenthe, A. T. Wong, Z. Zhang.

 Total times  cpu:        0.8s     wall:        1.1s
