 argument  1 = input.nw
                                         
                                         


             Northwest Computational Chemistry Package (NWChem) 7.0.0
             --------------------------------------------------------


                    Environmental Molecular Sciences Laboratory
                       Pacific Northwest National Laboratory
                                Richland, WA 99352

                              Copyright (c) 1994-2019
                       Pacific Northwest National Laboratory
                            Battelle Memorial Institute

             NWChem is an open-source computational chemistry package
                        distributed under the terms of the
                      Educational Community License (ECL) 2.0
             A copy of the license is included with this distribution
                              in the LICENSE.TXT file

                                  ACKNOWLEDGMENT
                                  --------------

            This software and its documentation were developed at the
            EMSL at Pacific Northwest National Laboratory, a multiprogram
            national laboratory, operated for the U.S. Department of Energy
            by Battelle under Contract Number DE-AC05-76RL01830. Support
            for this work was provided by the Department of Energy Office
            of Biological and Environmental Research, Office of Basic
            Energy Sciences, and the Office of Advanced Scientific Computing.


           Job information
           ---------------

    hostname        = cqc05
    program         = nwchem
    date            = Wed Jul 23 20:07:53 2025

    compiled        = Mon_Mar_09_19:57:00_2020
    source          = /build/nwchem-24Ysn1/nwchem-7.0.0
    nwchem branch   = 7.0.0
    nwchem revision = N/A
    ga revision     = 5.7.1
    use scalapack   = T
    input           = input.nw
    prefix          = input.
    data base       = ./input.db
    status          = startup
    nproc           =        1
    time left       =     -1s



           Memory information
           ------------------

    heap     =  262143994 doubles =   2000.0 Mbytes
    stack    =  262143999 doubles =   2000.0 Mbytes
    global   =  524288000 doubles =   4000.0 Mbytes (distinct from heap & stack)
    total    = 1048575993 doubles =   8000.0 Mbytes
    verify   = yes
    hardfail = no 


           Directory information
           ---------------------

  0 permanent = .
  0 scratch   = .




                                NWChem Input Module
                                -------------------


                                        HF
                                        --
 Turning off AUTOSYM since
 SYMMETRY directive was detected!



                             Geometry "geometry" -> ""
                             -------------------------

 Output coordinates in a.u. (scale by  1.000000000 to convert to a.u.)

  No.       Tag          Charge          X              Y              Z
 ---- ---------------- ---------- -------------- -------------- --------------
    1 N                    7.0000     0.00000000     0.00000000    -1.05900000
    2 N                    7.0000     0.00000000     0.00000000     1.05900000

      Atomic Mass 
      ----------- 

      N                 14.003070


 Effective nuclear repulsion energy (a.u.)      23.1350330500

            Nuclear Dipole moment (a.u.) 
            ----------------------------
        X                 Y               Z
 ---------------- ---------------- ----------------
     0.0000000000     0.0000000000     0.0000000000


            XYZ format geometry
            -------------------
     2
 geometry
 N                     0.00000000     0.00000000    -0.56039871
 N                     0.00000000     0.00000000     0.56039871

 ==============================================================================
                                internuclear distances
 ------------------------------------------------------------------------------
       center one      |      center two      | atomic units |       a.u.
 ------------------------------------------------------------------------------
    2 N                |   1 N                |     2.11800  |     2.11800
 ------------------------------------------------------------------------------
                         number of included internuclear distances:          1
 ==============================================================================



                      Basis "ao basis" -> "" (spherical)
                      -----
  N (Nitrogen)
  ------------
            Exponent  Coefficients 
       -------------- ---------------------------------------------------------
  1 S  9.04600000E+03  0.000700
  1 S  1.35700000E+03  0.005389
  1 S  3.09300000E+02  0.027406
  1 S  8.77300000E+01  0.103207
  1 S  2.85600000E+01  0.278723
  1 S  1.02100000E+01  0.448540
  1 S  3.83800000E+00  0.278238
  1 S  7.46600000E-01  0.015440

  2 S  9.04600000E+03 -0.000153
  2 S  1.35700000E+03 -0.001208
  2 S  3.09300000E+02 -0.005992
  2 S  8.77300000E+01 -0.024544
  2 S  2.85600000E+01 -0.067459
  2 S  1.02100000E+01 -0.158078
  2 S  3.83800000E+00 -0.121831
  2 S  7.46600000E-01  0.549003

  3 S  2.24800000E-01  1.000000

  4 P  1.35500000E+01  0.039919
  4 P  2.91700000E+00  0.217169
  4 P  7.97300000E-01  0.510319

  5 P  2.18500000E-01  1.000000

  6 D  8.17000000E-01  1.000000



 Summary of "ao basis" -> "" (spherical)
 ------------------------------------------------------------------------------
       Tag                 Description            Shells   Functions and Types
 ---------------- ------------------------------  ------  ---------------------
 N                          cc-pvdz                  6       14   3s2p1d


                                 NWChem SCF Module
                                 -----------------


                                        HF



  ao basis        = "ao basis"
  functions       =    28
  atoms           =     2
  closed shells   =     7
  open shells     =     0
  charge          =   0.00
  wavefunction    = RHF 
  input vectors   = atomic
  output vectors  = ./movecs.dz
  use symmetry    = F
  symmetry adapt  = F


 Summary of "ao basis" -> "ao basis" (spherical)
 ------------------------------------------------------------------------------
       Tag                 Description            Shells   Functions and Types
 ---------------- ------------------------------  ------  ---------------------
 N                          cc-pvdz                  6       14   3s2p1d



 Forming initial guess at       0.1s


 Setting tolerance for linear dependence to 1.00D-08

      Superposition of Atomic Density Guess
      -------------------------------------

 Sum of atomic energies:        -108.60004629

      Non-variational initial energy
      ------------------------------

 Total energy =    -109.033882
 1-e energy   =    -193.136771
 2-e energy   =      60.967856
 HOMO         =      -0.412648
 LUMO         =       0.027418


 Starting SCF solution at       0.1s



 ----------------------------------------------
         Quadratically convergent ROHF

 Convergence threshold     :          1.000E-09
 Maximum no. of iterations :         1000
 Final Fock-matrix accuracy:          1.000E-12
 ----------------------------------------------


              iter       energy          gnorm     gmax       time
             ----- ------------------- --------- --------- --------
                 1     -108.9366645079  4.42D-01  2.20D-01      0.1
                 2     -108.9485742707  1.03D-01  4.80D-02      0.2
                 3     -108.9493777475  1.56D-03  9.70D-04      0.3
                 4     -108.9493778789  4.33D-07  2.28D-07      0.5
                 5     -108.9493778789  2.32D-11  1.14D-11      0.7


       Final RHF  results 
       ------------------ 

         Total SCF energy =   -108.949377878885
      One-electron energy =   -193.285876654609
      Two-electron energy =     61.201465725677
 Nuclear repulsion energy =     23.135033050047

        Time for solution =      0.6s


             Final eigenvalues
             -----------------

              1      
    1  -15.6937
    2  -15.6907
    3   -1.4542
    4   -0.7815
    5   -0.6242
    6   -0.5985
    7   -0.5985
    8    0.1636
    9    0.1636
   10    0.5867
   11    0.8288
   12    0.8786
   13    0.8786
   14    0.9896
   15    1.0459
   16    1.0459
   17    1.1096

                       ROHF Final Molecular Orbital Analysis
                       -------------------------------------

 Vector    2  Occ=2.000000D+00  E=-1.569073D+01
              MO Center=  1.3D-17,  7.5D-19,  1.1D-12, r^2= 3.3D-01
   Bfn.  Coefficient  Atom+Function         Bfn.  Coefficient  Atom+Function  
  ----- ------------  ---------------      ----- ------------  ---------------
     1      0.708265  1 N  s                 15     -0.708265  2 N  s          

 Vector    3  Occ=2.000000D+00  E=-1.454249D+00
              MO Center=  1.9D-16,  1.4D-17, -1.7D-15, r^2= 4.6D-01
   Bfn.  Coefficient  Atom+Function         Bfn.  Coefficient  Atom+Function  
  ----- ------------  ---------------      ----- ------------  ---------------
     2      0.334479  1 N  s                 16      0.334479  2 N  s          
     6      0.212310  1 N  pz                20     -0.212310  2 N  pz         
     3      0.200020  1 N  s                 17      0.200020  2 N  s          

 Vector    4  Occ=2.000000D+00  E=-7.815456D-01
              MO Center=  5.2D-17,  1.5D-16, -1.4D-14, r^2= 1.3D+00
   Bfn.  Coefficient  Atom+Function         Bfn.  Coefficient  Atom+Function  
  ----- ------------  ---------------      ----- ------------  ---------------
     3      0.422685  1 N  s                 17     -0.422685  2 N  s          
     2      0.330982  1 N  s                 16     -0.330982  2 N  s          
     6     -0.211376  1 N  pz                20     -0.211376  2 N  pz         

 Vector    5  Occ=2.000000D+00  E=-6.241666D-01
              MO Center= -1.1D-15,  3.1D-17,  1.6D-14, r^2= 1.3D+00
   Bfn.  Coefficient  Atom+Function         Bfn.  Coefficient  Atom+Function  
  ----- ------------  ---------------      ----- ------------  ---------------
     6      0.454812  1 N  pz                20     -0.454812  2 N  pz         
     3     -0.325605  1 N  s                 17     -0.325605  2 N  s          
     9      0.216032  1 N  pz                23     -0.216032  2 N  pz         

 Vector    6  Occ=2.000000D+00  E=-5.985346D-01
              MO Center= -3.2D-16, -4.6D-17,  5.5D-15, r^2= 9.2D-01
   Bfn.  Coefficient  Atom+Function         Bfn.  Coefficient  Atom+Function  
  ----- ------------  ---------------      ----- ------------  ---------------
     4      0.400848  1 N  px                18      0.400848  2 N  px         
     7      0.247288  1 N  px                21      0.247288  2 N  px         

 Vector    7  Occ=2.000000D+00  E=-5.985346D-01
              MO Center=  4.0D-16, -4.0D-16,  3.2D-15, r^2= 9.2D-01
   Bfn.  Coefficient  Atom+Function         Bfn.  Coefficient  Atom+Function  
  ----- ------------  ---------------      ----- ------------  ---------------
     5      0.400848  1 N  py                19      0.400848  2 N  py         
     8      0.247288  1 N  py                22      0.247288  2 N  py         

 Vector    8  Occ=0.000000D+00  E= 1.635585D-01
              MO Center=  4.8D-17, -8.6D-17, -5.5D-15, r^2= 1.4D+00
   Bfn.  Coefficient  Atom+Function         Bfn.  Coefficient  Atom+Function  
  ----- ------------  ---------------      ----- ------------  ---------------
     8      0.658095  1 N  py                22     -0.658095  2 N  py         
     5      0.430462  1 N  py                19     -0.430462  2 N  py         

 Vector    9  Occ=0.000000D+00  E= 1.635585D-01
              MO Center=  1.2D-16,  7.2D-18, -8.4D-15, r^2= 1.4D+00
   Bfn.  Coefficient  Atom+Function         Bfn.  Coefficient  Atom+Function  
  ----- ------------  ---------------      ----- ------------  ---------------
     7      0.658095  1 N  px                21     -0.658095  2 N  px         
     4      0.430462  1 N  px                18     -0.430462  2 N  px         

 Vector   10  Occ=0.000000D+00  E= 5.866801D-01
              MO Center=  8.2D-17,  3.1D-16, -8.5D-14, r^2= 3.2D+00
   Bfn.  Coefficient  Atom+Function         Bfn.  Coefficient  Atom+Function  
  ----- ------------  ---------------      ----- ------------  ---------------
     3      3.663683  1 N  s                 17     -3.663683  2 N  s          
     9      2.523551  1 N  pz                23      2.523551  2 N  pz         
     2      0.171698  1 N  s                 16     -0.171698  2 N  s          

 Vector   11  Occ=0.000000D+00  E= 8.287526D-01
              MO Center=  1.1D-15, -4.2D-16,  1.0D-14, r^2= 2.2D+00
   Bfn.  Coefficient  Atom+Function         Bfn.  Coefficient  Atom+Function  
  ----- ------------  ---------------      ----- ------------  ---------------
     9      0.930188  1 N  pz                23     -0.930188  2 N  pz         
     6     -0.470913  1 N  pz                20      0.470913  2 N  pz         
     2     -0.292956  1 N  s                 16     -0.292956  2 N  s          
     1     -0.153578  1 N  s                 15     -0.153578  2 N  s          

 Vector   12  Occ=0.000000D+00  E= 8.785727D-01
              MO Center=  2.0D-16, -9.5D-18, -8.1D-14, r^2= 1.8D+00
   Bfn.  Coefficient  Atom+Function         Bfn.  Coefficient  Atom+Function  
  ----- ------------  ---------------      ----- ------------  ---------------
     4      0.649402  1 N  px                18      0.649402  2 N  px         
     7     -0.620585  1 N  px                21     -0.620585  2 N  px         

 Vector   13  Occ=0.000000D+00  E= 8.785727D-01
              MO Center= -3.6D-17,  1.7D-15, -6.6D-14, r^2= 1.8D+00
   Bfn.  Coefficient  Atom+Function         Bfn.  Coefficient  Atom+Function  
  ----- ------------  ---------------      ----- ------------  ---------------
     5      0.649402  1 N  py                19      0.649402  2 N  py         
     8     -0.620585  1 N  py                22     -0.620585  2 N  py         

 Vector   14  Occ=0.000000D+00  E= 9.896248D-01
              MO Center= -5.3D-16, -8.7D-16,  1.7D-13, r^2= 1.8D+00
   Bfn.  Coefficient  Atom+Function         Bfn.  Coefficient  Atom+Function  
  ----- ------------  ---------------      ----- ------------  ---------------
     2      1.041205  1 N  s                 16      1.041205  2 N  s          
     3     -0.936596  1 N  s                 17     -0.936596  2 N  s          
     1      0.428196  1 N  s                 15      0.428196  2 N  s          
     6     -0.260485  1 N  pz                20      0.260485  2 N  pz         
     9      0.178889  1 N  pz                23     -0.178889  2 N  pz         

 Vector   15  Occ=0.000000D+00  E= 1.045916D+00
              MO Center= -7.6D-19, -8.5D-17,  6.6D-14, r^2= 2.0D+00
   Bfn.  Coefficient  Atom+Function         Bfn.  Coefficient  Atom+Function  
  ----- ------------  ---------------      ----- ------------  ---------------
     8      1.142815  1 N  py                22     -1.142815  2 N  py         
     5     -0.730831  1 N  py                19      0.730831  2 N  py         

 Vector   16  Occ=0.000000D+00  E= 1.045916D+00
              MO Center=  5.4D-16,  8.7D-18,  8.2D-14, r^2= 2.0D+00
   Bfn.  Coefficient  Atom+Function         Bfn.  Coefficient  Atom+Function  
  ----- ------------  ---------------      ----- ------------  ---------------
     7      1.142815  1 N  px                21     -1.142815  2 N  px         
     4     -0.730831  1 N  px                18      0.730831  2 N  px         

 Vector   17  Occ=0.000000D+00  E= 1.109574D+00
              MO Center= -3.0D-16, -3.5D-16, -3.9D-14, r^2= 1.2D+00
   Bfn.  Coefficient  Atom+Function         Bfn.  Coefficient  Atom+Function  
  ----- ------------  ---------------      ----- ------------  ---------------
     6      0.763398  1 N  pz                20      0.763398  2 N  pz         
     9     -0.365218  1 N  pz                23     -0.365218  2 N  pz         
     3      0.316677  1 N  s                 17     -0.316677  2 N  s          
    12     -0.223970  1 N  d  0              26      0.223970  2 N  d  0       
     2     -0.184513  1 N  s                 16      0.184513  2 N  s          


 center of mass
 --------------
 x =   0.00000000 y =   0.00000000 z =   0.00000000

 moments of inertia (a.u.)
 ------------------
          31.408353893340           0.000000000000           0.000000000000
           0.000000000000          31.408353893340           0.000000000000
           0.000000000000           0.000000000000           0.000000000000

  Mulliken analysis of the total density
  --------------------------------------

    Atom       Charge   Shell Charges
 -----------   ------   -------------------------------------------------------
    1 N    7     7.00   2.00  0.86  0.89  2.10  1.08  0.06
    2 N    7     7.00   2.00  0.86  0.89  2.10  1.08  0.06

       Multipole analysis of the density wrt the origin
       ------------------------------------------------

     L   x y z        total         open         nuclear
     -   - - -        -----         ----         -------
     0   0 0 0     -0.000000      0.000000     14.000000

     1   1 0 0      0.000000      0.000000      0.000000
     1   0 1 0      0.000000      0.000000      0.000000
     1   0 0 1     -0.000000      0.000000      0.000000

     2   2 0 0     -7.598757      0.000000      0.000000
     2   1 1 0     -0.000000      0.000000      0.000000
     2   1 0 1     -0.000000      0.000000      0.000000
     2   0 2 0     -7.598757      0.000000      0.000000
     2   0 1 1     -0.000000      0.000000      0.000000
     2   0 0 2     -8.683021      0.000000     15.700734

                   NWChem MP2 Semi-direct Energy/Gradient Module
                   ---------------------------------------------


                                        HF


  Basis functions       =     28
  Molecular orbitals    =     28
  Frozen core           =      2
  Frozen virtuals       =      0
  Active alpha occupied =      5
  Active beta occupied  =      5
  Active alpha virtual  =     21
  Active beta virtual   =     21
  Use MO symmetry       = F
  Use skeleton AO sym   = F

  AO/Fock/Back tols     =   1.0D-09  1.0D-09  1.0D-09

 GA uses MA = F    GA memory limited = T

 Available: 
  local mem=  5.24D+08
 global mem=  5.24D+08
 local disk=  1.69D+12
  mp2_memr nvloc                    21
  nvloc new                    21
   1 passes of   5:         339849                       4276                    146329.

 Semi-direct pass number   1 of   1  for RHF alpha+beta  at        0.9s
  vrange nnbf                   406
Node 0 wrote      0.3 Mb in      0.0 s     Agg I/O rate:  1065.7 Mb/s
 Done moints_semi at        1.0s
 Done maket at        1.0s
 Done multipass loop at        1.0s


          -------------------------------------------
          SCF energy                -108.949377878885
          Correlation energy          -0.313385060075
          Singlet pairs               -0.187463718408
          Triplet pairs               -0.125921341667
          Total MP2 energy          -109.262762938959
          -------------------------------------------



          ---------------------------------------------------
                    Spin Component Scaled (SCS) MP2
          Same spin pairs                     -0.083947561111
          Same spin scaling factor             0.333333333333
          Opposite spin pairs                 -0.229437498964
          Opposite spin scaling fact.          1.200000000000
          SCS-MP2 correlation energy          -0.303307519127
          Total SCS-MP2 energy              -109.252685398011
          ---------------------------------------------------

 -----------------------
 Performance information
 -----------------------

 Timer overhead =  2.77D-07 seconds/call

               Nr. of calls         CPU time (s)                 Wall time (s)                GFlops
             ---------------    -------------------     ------------------------------   -------------------
Name         Min   Avg   Max    Min     Avg     Max     Min     Avg     Max   Mx/calls   Min     Max     Sum
mp2: moin     1     1     1   9.88E-2 9.88E-2 9.88E-2  0.10    0.10    0.10    0.10      0.0     0.0     0.0   
mp2: make     1     1     1   3.84E-3 3.84E-3 3.84E-3  3.85E-3 3.85E-3 3.85E-3 3.85E-3   0.0     0.0     0.0   
mp2: tota     1     1     1   0.12    0.12    0.12     0.27    0.27    0.27    0.27      0.0     0.0     0.0   

 The average no. of pstat calls per process was 3.00D+00
 with a timing overhead of 8.30D-07s


 Task  times  cpu:        0.8s     wall:        1.0s


                                NWChem Input Module
                                -------------------


 Summary of allocated global arrays
-----------------------------------
  No active global arrays



                         GA Statistics for process    0
                         ------------------------------

       create   destroy   get      put      acc     scatter   gather  read&inc
calls:  318      318     6646     1902     3537        0        0      516     
number of processes/call 0.00e+00 0.00e+00 0.00e+00 0.00e+00 0.00e+00
bytes total:             2.10e+06 2.38e+06 5.14e+05 0.00e+00 0.00e+00 4.13e+03
bytes remote:            0.00e+00 0.00e+00 0.00e+00 0.00e+00 0.00e+00 0.00e+00
Max memory consumed for GA by this process: 1329672 bytes

MA_summarize_allocated_blocks: starting scan ...
MA_summarize_allocated_blocks: scan completed: 0 heap blocks, 0 stack blocks
MA usage statistics:

	allocation statistics:
					      heap	     stack
					      ----	     -----
	current number of blocks	         0	         0
	maximum number of blocks	        16	        22
	current total bytes		         0	         0
	maximum total bytes		     80152	  22509592
	maximum total K-bytes		        81	     22510
	maximum total M-bytes		         1	        23


                                     CITATION
                                     --------
                Please cite the following reference when publishing
                           results obtained with NWChem:

                 M. Valiev, E.J. Bylaska, N. Govind, K. Kowalski,
              T.P. Straatsma, H.J.J. van Dam, D. Wang, J. Nieplocha,
                        E. Apra, T.L. Windus, W.A. de Jong
                 "NWChem: a comprehensive and scalable open-source
                  solution for large scale molecular simulations"
                      Comput. Phys. Commun. 181, 1477 (2010)
                           doi:10.1016/j.cpc.2010.04.018

                                      AUTHORS
                                      -------
     E. Apra, E. J. Bylaska, N. Govind, K. Kowalski, M. Valiev, W. A. de Jong,
      T. P. Straatsma, H. J. J. van Dam, D. Wang, T. L. Windus, N. P. Bauman,
       A. Panyala, J. Hammond, J. Autschbach, K. Bhaskaran-Nair, J. Brabec,
    K. Lopata, S. A. Fischer, S. Krishnamoorthy, M. Jacquelin, W. Ma, M. Klemm,
       O. Villa, Y. Chen, V. Anisimov, F. Aquino, S. Hirata, M. T. Hackler,
           Eric Hermes, L. Jensen, J. E. Moore, J. C. Becca, V. Konjkov,
            D. Mejia-Rodriguez, T. Risthaus, M. Malagoli, A. Marenich,
   A. Otero-de-la-Roza, J. Mullin, P. Nichols, R. Peverati, J. Pittner, Y. Zhao,
        P.-D. Fan, A. Fonari, M. J. Williamson, R. J. Harrison, J. R. Rehr,
      M. Dupuis, D. Silverstein, D. M. A. Smith, J. Nieplocha, V. Tipparaju,
      M. Krishnan, B. E. Van Kuiken, A. Vazquez-Mayagoitia, M. Swart, Q. Wu,
   T. Van Voorhis, A. A. Auer, M. Nooijen, L. D. Crosby, E. Brown, G. Cisneros,
     G. I. Fann, H. Fruchtl, J. Garza, K. Hirao, R. A. Kendall, J. A. Nichols,
       K. Tsemekhman, K. Wolinski, J. Anchell, D. E. Bernholdt, P. Borowski,
       T. Clark, D. Clerc, H. Dachsel, M. J. O. Deegan, K. Dyall, D. Elwood,
      E. Glendening, M. Gutowski, A. C. Hess, J. Jaffe, B. G. Johnson, J. Ju,
        R. Kobayashi, R. Kutteh, Z. Lin, R. Littlefield, X. Long, B. Meng,
      T. Nakajima, S. Niu, L. Pollack, M. Rosing, K. Glaesemann, G. Sandrone,
      M. Stave, H. Taylor, G. Thomas, J. H. van Lenthe, A. T. Wong, Z. Zhang.

 Total times  cpu:        0.8s     wall:        1.1s
